/*--------------------------------*- C++ -*----------------------------------*\
  =========                 |
  \\      /  F ield         | OpenFOAM: The Open Source CFD Toolbox
   \\    /   O peration     | Website:  https://openfoam.org
    \\  /    A nd           | Version:  10
     \\/     M anipulation  |
\*---------------------------------------------------------------------------*/
FoamFile
{
    format      ascii;
    class       volScalarField;
    location    "0.2";
    object      psi;
}
// * * * * * * * * * * * * * * * * * * * * * * * * * * * * * * * * * * * * * //

dimensions      [0 0 0 0 0 0 0];

internalField   nonuniform List<scalar> 
400
(
6.41513e-06
2.85509e-05
0.000116728
0.000369217
0.000910793
0.00179542
0.00290446
0.00396355
0.0047204
0.00513467
0.00534025
0.00518556
0.00445102
0.00332779
0.00203844
0.000969524
0.000347534
9.33731e-05
1.91224e-05
3.57028e-06
3.75998e-05
0.000173379
0.00069648
0.00210829
0.00490126
0.00905054
0.0137419
0.017773
0.0203829
0.0217084
0.0224245
0.0218893
0.0190314
0.0143995
0.00900065
0.00441649
0.00163536
0.000449121
9.2198e-05
1.65669e-05
0.000205147
0.000943501
0.00364089
0.010379
0.0226069
0.0392704
0.0566218
0.0703897
0.0784721
0.0816617
0.0820475
0.0776898
0.0660627
0.0493261
0.0309902
0.0156312
0.0060482
0.00174827
0.000375537
6.90979e-05
0.000883094
0.00395586
0.014394
0.0381566
0.077361
0.126237
0.173109
0.207073
0.223617
0.224756
0.214789
0.192348
0.156848
0.114136
0.0715859
0.0370733
0.0150959
0.00468164
0.00108684
0.000213444
0.0029338
0.0124915
0.042078
0.102281
0.190953
0.290276
0.376086
0.43037
0.447534
0.431773
0.390165
0.328907
0.255967
0.180748
0.112681
0.0596914
0.0255755
0.00858453
0.00220217
0.000479108
0.00750791
0.0298102
0.0915861
0.201473
0.341859
0.477836
0.578072
0.627375
0.626034
0.581799
0.502989
0.402823
0.299098
0.203867
0.125229
0.0671708
0.0300558
0.0109236
0.00314182
0.000782428
0.0153271
0.0565166
0.158565
0.31715
0.491785
0.634884
0.718463
0.737494
0.700232
0.618858
0.50598
0.381084
0.26637
0.172445
0.102464
0.0546365
0.0251749
0.00984707
0.0031982
0.000937024
0.0265413
0.0909549
0.234418
0.430348
0.616162
0.741281
0.788823
0.765303
0.685895
0.568037
0.431153
0.299333
0.192574
0.115595
0.0648896
0.0337199
0.0157951
0.00659187
0.00239928
0.000833952
0.0412409
0.131217
0.311948
0.529948
0.707337
0.799691
0.803938
0.736413
0.618371
0.473641
0.328486
0.2071
0.120859
0.0665511
0.0352979
0.0181657
0.00889307
0.00399717
0.0015417
0.000578789
0.0590581
0.175267
0.386223
0.611645
0.767388
0.821145
0.783066
0.677379
0.531345
0.374944
0.237598
0.137542
0.0747735
0.0400611
0.0223133
0.0130222
0.00750134
0.00382874
0.00144008
0.000398796
0.0793944
0.221181
0.454246
0.675344
0.802702
0.818949
0.74554
0.612925
0.453266
0.299648
0.179288
0.101584
0.0574197
0.0351397
0.0239787
0.0170218
0.0114163
0.00653889
0.00261109
0.000496166
0.1018
0.26746
0.514562
0.723332
0.821375
0.806639
0.709289
0.563591
0.403567
0.261204
0.158513
0.0977055
0.0642929
0.0471718
0.0369884
0.0284147
0.0201369
0.0123866
0.0055834
0.00109809
0.126195
0.313131
0.566833
0.759144
0.831946
0.797046
0.690094
0.54573
0.395617
0.267125
0.17725
0.125172
0.0936899
0.074777
0.0606798
0.0470844
0.0339015
0.0218994
0.011121
0.00267703
0.152969
0.357552
0.611256
0.786593
0.84225
0.801076
0.700882
0.573216
0.443204
0.330105
0.245806
0.191102
0.149879
0.12066
0.0969271
0.0742334
0.0534433
0.0356933
0.0200959
0.00618006
0.182669
0.39974
0.647583
0.808274
0.857101
0.824042
0.746443
0.651384
0.556185
0.468681
0.386683
0.310552
0.242167
0.190577
0.149439
0.112026
0.0798211
0.0543167
0.0332239
0.0130755
0.214682
0.436773
0.673166
0.82281
0.874209
0.85883
0.810877
0.751987
0.694609
0.649204
0.594595
0.48706
0.377453
0.290616
0.222983
0.163635
0.114663
0.0783976
0.0509091
0.0249258
0.244342
0.46065
0.679224
0.820443
0.879676
0.879176
0.853554
0.820203
0.784901
0.747939
0.698443
0.618534
0.519677
0.416424
0.319784
0.232765
0.160656
0.109135
0.0733769
0.042469
0.259325
0.454418
0.648106
0.782818
0.832602
0.841159
0.829975
0.808569
0.780049
0.744395
0.699165
0.639741
0.567225
0.484039
0.394382
0.304379
0.221401
0.149193
0.101281
0.0650275
0.238755
0.410256
0.548533
0.628653
0.663196
0.672341
0.66674
0.651623
0.629425
0.601188
0.567444
0.52957
0.487162
0.439644
0.386315
0.32661
0.261121
0.194324
0.137436
0.0914426
0.204429
0.276899
0.322497
0.348618
0.361565
0.365989
0.364766
0.359545
0.35124
0.340358
0.327455
0.313541
0.298527
0.282297
0.264676
0.245377
0.22388
0.199139
0.168482
0.124529
)
;

boundaryField
{
    movingWall
    {
        type            zeroGradient;
    }
    fixedWalls
    {
        type            zeroGradient;
    }
    frontAndBack
    {
        type            empty;
    }
}


// ************************************************************************* //
