/*--------------------------------*- C++ -*----------------------------------*\
  =========                 |
  \\      /  F ield         | OpenFOAM: The Open Source CFD Toolbox
   \\    /   O peration     | Website:  https://openfoam.org
    \\  /    A nd           | Version:  10
     \\/     M anipulation  |
\*---------------------------------------------------------------------------*/
FoamFile
{
    format      ascii;
    class       volScalarField;
    location    "1.2";
    object      p;
}
// * * * * * * * * * * * * * * * * * * * * * * * * * * * * * * * * * * * * * //

dimensions      [0 2 -2 0 0 0 0];

internalField   nonuniform List<scalar> 
400
(
3.25021e-06
-0.00582446
-0.0129625
-0.0184149
-0.0204326
-0.0182391
-0.0117746
-0.00148435
0.0118368
0.0271488
0.0432442
0.0588229
0.0725786
0.0833085
0.0900528
0.092267
0.0900259
0.0842439
0.0768806
0.0710671
0.00578161
-0.000217702
-0.00580372
-0.00954254
-0.0105991
-0.00843306
-0.00297042
0.00547358
0.0163023
0.0287113
0.0417495
0.0543858
0.0655864
0.0744099
0.0801203
0.0823157
0.0810772
0.0770547
0.071274
0.0653177
0.0133358
0.00503409
-0.000995116
-0.00442309
-0.00527305
-0.00326419
0.00160195
0.00902708
0.0185015
0.0293488
0.040765
0.0518694
0.0617684
0.0696363
0.074807
0.076878
0.0758415
0.0720857
0.0658052
0.0575352
0.0201401
0.00869635
0.00122603
-0.00266853
-0.00372224
-0.00188554
0.00273094
0.00978412
0.0187798
0.0290945
0.0399915
0.0506536
0.0602327
0.0679158
0.0730031
0.0750014
0.0737656
0.0694558
0.0616026
0.0501021
0.0245026
0.00977352
0.000589974
-0.00398689
-0.00530234
-0.00350755
0.00117444
0.00833418
0.0174615
0.0279485
0.0390845
0.0500694
0.0600485
0.0681648
0.0736261
0.0757975
0.0743687
0.0692894
0.0595251
0.0445365
0.0251785
0.00715045
-0.00380178
-0.00905713
-0.0105122
-0.00850016
-0.00335706
0.00442911
0.014313
0.0256785
0.0378133
0.0499028
0.0610476
0.0703027
0.0767343
0.0795166
0.0781386
0.0723332
0.0605388
0.0418894
0.0210939
-0.000261996
-0.0129342
-0.0187092
-0.0200298
-0.0174141
-0.0113186
-0.00231996
0.00899011
0.0219758
0.0359092
0.0499439
0.0631117
0.0743448
0.0825214
0.0865691
0.0857203
0.0794467
0.0656199
0.0430711
0.0111431
-0.0136179
-0.0278748
-0.0338541
-0.0346035
-0.0308576
-0.023213
-0.0123454
0.00110458
0.0164836
0.0330522
0.0499332
0.0660829
0.0802894
0.0912003
0.0974296
0.0978699
0.0916357
0.0758959
0.049116
-0.00596704
-0.0342664
-0.0498699
-0.0555485
-0.05509
-0.0495146
-0.0395936
-0.0261135
-0.00975734
0.00882274
0.0289007
0.0495932
0.0697972
0.0881542
0.103047
0.112701
0.11555
0.110191
0.0928339
0.061411
-0.0318571
-0.0638761
-0.0804169
-0.0850071
-0.08242
-0.0740783
-0.0609809
-0.0440367
-0.0239517
-0.00133713
0.0231454
0.0486608
0.0740954
0.097972
0.118396
0.133125
0.139988
0.136818
0.11844
0.0819335
-0.0686674
-0.104603
-0.121345
-0.12359
-0.117515
-0.105127
-0.0877182
-0.0663255
-0.0416371
-0.0141558
0.0156054
0.046953
0.0788556
0.109793
0.137624
0.159585
0.172727
0.173778
0.15552
0.113571
-0.119402
-0.159357
-0.174915
-0.172757
-0.161148
-0.142929
-0.119759
-0.0927769
-0.0625774
-0.0294477
0.00637306
0.0444734
0.0840551
0.123703
0.161136
0.193086
0.215668
0.224077
0.208051
0.160633
-0.188628
-0.232242
-0.243938
-0.233948
-0.213694
-0.187154
-0.156372
-0.122501
-0.0858976
-0.0464719
-0.00401427
0.041539
0.0898423
0.13983
0.189319
0.234689
0.271075
0.291665
0.281743
0.229776
-0.283974
-0.329304
-0.331831
-0.308279
-0.274708
-0.236439
-0.195764
-0.153609
-0.109839
-0.0637445
-0.0144373
0.038864
0.0965548
0.158277
0.222375
0.285288
0.341398
0.381576
0.384915
0.331835
-0.419318
-0.45967
-0.442349
-0.395791
-0.342128
-0.287738
-0.234615
-0.182929
-0.131608
-0.0789838
-0.0232129
0.0374764
0.104554
0.178839
0.259862
0.344971
0.428617
0.499701
0.529676
0.485392
-0.62053
-0.636742
-0.578675
-0.494191
-0.411239
-0.335657
-0.267779
-0.205976
-0.147535
-0.0893813
-0.0284244
0.0383499
0.113808
0.200473
0.299977
0.412027
0.533031
0.651777
0.732773
0.722397
-0.935922
-0.878513
-0.74174
-0.597946
-0.474391
-0.372657
-0.288866
-0.217761
-0.153951
-0.0924619
-0.0287153
0.0416977
0.123265
0.22072
0.338928
0.482157
0.651999
0.841344
1.01527
1.09751
-1.47642
-1.20663
-0.920501
-0.691385
-0.517302
-0.387541
-0.290059
-0.213335
-0.148122
-0.0872133
-0.0245754
0.0454596
0.12894
0.233073
0.367105
0.54268
0.771295
1.05932
1.40329
1.73014
-2.53965
-1.63055
-1.04444
-0.710956
-0.495748
-0.352091
-0.254528
-0.183581
-0.126167
-0.0735928
-0.0192668
0.042789
0.119214
0.218785
0.354814
0.547986
0.826395
1.23658
1.91168
2.9242
-4.36666
-2.04463
-0.97354
-0.563178
-0.357844
-0.240144
-0.170117
-0.12378
-0.0874789
-0.053508
-0.0166523
0.0276628
0.0846095
0.161732
0.272413
0.442101
0.718221
1.22571
2.41104
4.84853
)
;

boundaryField
{
    movingWall
    {
        type            zeroGradient;
    }
    fixedWalls
    {
        type            zeroGradient;
    }
    frontAndBack
    {
        type            empty;
    }
}


// ************************************************************************* //
