/*--------------------------------*- C++ -*----------------------------------*\
  =========                 |
  \\      /  F ield         | OpenFOAM: The Open Source CFD Toolbox
   \\    /   O peration     | Website:  https://openfoam.org
    \\  /    A nd           | Version:  10
     \\/     M anipulation  |
\*---------------------------------------------------------------------------*/
FoamFile
{
    format      ascii;
    class       volScalarField;
    location    "1.2";
    object      psi;
}
// * * * * * * * * * * * * * * * * * * * * * * * * * * * * * * * * * * * * * //

dimensions      [0 0 0 0 0 0 0];

internalField   nonuniform List<scalar> 
400
(
0.0272792
0.0311958
0.0381882
0.046432
0.0544626
0.0617419
0.0684063
0.0747562
0.080966
0.0870318
0.0927924
0.0973908
0.0994545
0.0981681
0.0930414
0.0838437
0.0708071
0.0551959
0.0401225
0.0306894
0.033069
0.0378348
0.0465037
0.0573482
0.0689747
0.0807951
0.0926202
0.104266
0.115482
0.126041
0.135836
0.14364
0.147532
0.146757
0.140826
0.129286
0.111922
0.0896185
0.0661882
0.0498889
0.0433815
0.0493697
0.0612223
0.0774529
0.0964805
0.117059
0.138048
0.158353
0.177053
0.19349
0.207277
0.217104
0.221639
0.22075
0.214178
0.201185
0.180638
0.1519
0.117866
0.0906566
0.0564597
0.0642746
0.0811873
0.105523
0.134543
0.165455
0.195692
0.223167
0.246422
0.264614
0.277388
0.284682
0.287158
0.28548
0.279639
0.268763
0.250979
0.223662
0.186194
0.15026
0.0711735
0.0815954
0.105197
0.138932
0.177673
0.216479
0.251454
0.280108
0.301344
0.315189
0.322418
0.324857
0.324597
0.322422
0.318359
0.311752
0.300962
0.28282
0.253364
0.218079
0.0868497
0.10055
0.131557
0.173987
0.219479
0.261102
0.294537
0.318142
0.332427
0.339226
0.340844
0.339913
0.338193
0.336013
0.333368
0.330067
0.325467
0.317705
0.302654
0.278701
0.103032
0.120364
0.158443
0.207336
0.255421
0.294792
0.322139
0.337902
0.344785
0.346196
0.34504
0.343217
0.341238
0.339033
0.336661
0.334362
0.332428
0.330816
0.327952
0.319824
0.119359
0.140324
0.184346
0.236848
0.283747
0.317651
0.33752
0.346328
0.348455
0.3477
0.346307
0.344844
0.342877
0.340266
0.337218
0.334218
0.332015
0.331653
0.334186
0.338059
0.13554
0.159856
0.20828
0.26169
0.304867
0.332302
0.345766
0.350265
0.350697
0.350094
0.349456
0.348382
0.34614
0.342744
0.338561
0.33419
0.330467
0.328656
0.330858
0.338844
0.151353
0.178562
0.229763
0.281969
0.320258
0.341829
0.351001
0.353788
0.35453
0.35497
0.355029
0.353934
0.351059
0.346622
0.341142
0.335293
0.329906
0.326082
0.325644
0.331567
0.166659
0.196219
0.248694
0.298295
0.331597
0.348682
0.355645
0.358491
0.360423
0.361956
0.362364
0.360892
0.357122
0.351468
0.344595
0.337269
0.330366
0.324877
0.322008
0.323948
0.181404
0.212751
0.265209
0.311432
0.340292
0.354402
0.360729
0.364599
0.367975
0.370449
0.370965
0.368903
0.364057
0.357038
0.348658
0.339778
0.331401
0.324603
0.32024
0.319304
0.195614
0.22818
0.279541
0.322074
0.3473
0.359707
0.366376
0.371699
0.376599
0.380011
0.380599
0.37781
0.371748
0.363248
0.353264
0.3427
0.33273
0.324701
0.31946
0.317372
0.209366
0.242562
0.291897
0.330696
0.353072
0.364606
0.372006
0.378822
0.385317
0.389942
0.390829
0.387194
0.379874
0.369918
0.358377
0.346053
0.334295
0.324903
0.318917
0.316644
0.222717
0.255863
0.302318
0.337448
0.357545
0.36848
0.376296
0.384016
0.391815
0.398028
0.399944
0.395576
0.387378
0.376392
0.363739
0.349828
0.336147
0.325182
0.318308
0.316008
0.235508
0.267738
0.310478
0.34204
0.360232
0.370415
0.377715
0.384927
0.392588
0.398783
0.402166
0.398951
0.391596
0.380953
0.368471
0.353764
0.338306
0.32561
0.317623
0.315115
0.247007
0.277125
0.315306
0.34351
0.360513
0.370094
0.376149
0.381427
0.386231
0.389777
0.391387
0.390403
0.386665
0.380005
0.370295
0.356829
0.340546
0.32625
0.316936
0.314049
0.255516
0.281752
0.314858
0.341091
0.354545
0.362328
0.367221
0.370712
0.373243
0.374789
0.375215
0.374452
0.372319
0.368477
0.362438
0.353624
0.341731
0.326975
0.316287
0.312974
0.258443
0.281263
0.305715
0.322213
0.331822
0.337692
0.341413
0.343815
0.345297
0.346036
0.346128
0.345918
0.345331
0.344201
0.342218
0.338835
0.333225
0.32475
0.315577
0.311963
0.259092
0.269503
0.278212
0.284562
0.289126
0.292522
0.295161
0.297289
0.299045
0.300503
0.30175
0.302975
0.304178
0.305353
0.306489
0.307567
0.308546
0.309373
0.310056
0.310902
)
;

boundaryField
{
    movingWall
    {
        type            zeroGradient;
    }
    fixedWalls
    {
        type            zeroGradient;
    }
    frontAndBack
    {
        type            empty;
    }
}


// ************************************************************************* //
