/*--------------------------------*- C++ -*----------------------------------*\
  =========                 |
  \\      /  F ield         | OpenFOAM: The Open Source CFD Toolbox
   \\    /   O peration     | Website:  https://openfoam.org
    \\  /    A nd           | Version:  10
     \\/     M anipulation  |
\*---------------------------------------------------------------------------*/
FoamFile
{
    format      ascii;
    class       volScalarField;
    location    "1.4";
    object      psi;
}
// * * * * * * * * * * * * * * * * * * * * * * * * * * * * * * * * * * * * * //

dimensions      [0 0 0 0 0 0 0];

internalField   nonuniform List<scalar> 
400
(
0.0352475
0.0396662
0.0481098
0.0591471
0.0712186
0.0832153
0.0945552
0.104971
0.114327
0.122534
0.12948
0.134469
0.136396
0.134657
0.128856
0.118701
0.104218
0.0864513
0.0686908
0.0572071
0.0411477
0.0471218
0.0586464
0.0740154
0.0910392
0.107993
0.123833
0.138033
0.150403
0.160971
0.169919
0.176487
0.179344
0.17802
0.172119
0.161122
0.14455
0.122779
0.0990455
0.0818245
0.0518605
0.0603493
0.0770894
0.0995036
0.124181
0.148433
0.170653
0.190076
0.206459
0.21984
0.230387
0.237547
0.240628
0.239594
0.234186
0.223698
0.206994
0.183121
0.153834
0.129323
0.065704
0.0774712
0.100803
0.13134
0.163855
0.194602
0.221578
0.243992
0.261718
0.274937
0.283934
0.289041
0.290833
0.289702
0.285584
0.277845
0.26512
0.245373
0.217671
0.190042
0.0813969
0.0968634
0.127148
0.165113
0.203389
0.237401
0.265178
0.286362
0.301415
0.311146
0.31644
0.318538
0.318672
0.317309
0.314522
0.309985
0.302769
0.290974
0.272063
0.249058
0.0980112
0.117196
0.153823
0.197267
0.238152
0.271661
0.296505
0.313321
0.323571
0.328912
0.330825
0.330755
0.329713
0.32803
0.325857
0.323211
0.319838
0.31485
0.306225
0.293161
0.114877
0.137468
0.179205
0.225728
0.266247
0.296505
0.316515
0.328209
0.334011
0.336086
0.336008
0.334834
0.333073
0.330937
0.328627
0.326372
0.324394
0.322755
0.32091
0.31738
0.131519
0.157011
0.202383
0.249765
0.287819
0.313581
0.328665
0.336163
0.339009
0.339325
0.338349
0.336646
0.334369
0.331678
0.328809
0.326086
0.32394
0.322905
0.323499
0.325309
0.147624
0.175437
0.223001
0.269524
0.304004
0.325224
0.336299
0.341026
0.342324
0.341911
0.340581
0.338563
0.335827
0.332521
0.328913
0.325386
0.322452
0.320788
0.321268
0.32437
0.163007
0.192568
0.241064
0.285569
0.316162
0.333471
0.34173
0.344936
0.345634
0.345041
0.343592
0.341339
0.338133
0.334139
0.329678
0.325198
0.321286
0.318673
0.318256
0.320764
0.177595
0.208379
0.256771
0.298589
0.325497
0.339785
0.34633
0.348934
0.349625
0.349164
0.347729
0.345263
0.341523
0.336723
0.33127
0.325698
0.320693
0.317071
0.31572
0.317407
0.191402
0.222942
0.270403
0.30923
0.332932
0.345108
0.350844
0.353519
0.354631
0.35455
0.35323
0.35052
0.34612
0.340349
0.333734
0.3269
0.320656
0.315953
0.313705
0.31476
0.204512
0.236382
0.282237
0.318007
0.339088
0.349963
0.355598
0.358873
0.360802
0.36138
0.36027
0.35721
0.35196
0.345029
0.337086
0.328808
0.321143
0.315246
0.312061
0.312497
0.217048
0.248816
0.292474
0.325245
0.344263
0.35446
0.360482
0.364755
0.367912
0.369545
0.368809
0.365184
0.35887
0.350632
0.34128
0.331422
0.322144
0.314914
0.310731
0.310438
0.229098
0.260257
0.301137
0.330987
0.348357
0.358192
0.364702
0.370006
0.3746
0.377804
0.377936
0.373519
0.366118
0.356664
0.346094
0.334691
0.323652
0.314942
0.309698
0.308632
0.240546
0.270424
0.307905
0.334869
0.35081
0.36023
0.366753
0.372355
0.377598
0.381557
0.383222
0.379088
0.371625
0.361784
0.350836
0.338384
0.325628
0.31532
0.308938
0.307162
0.250758
0.278394
0.311794
0.335917
0.350853
0.359856
0.365509
0.369979
0.373606
0.375992
0.376595
0.374531
0.369925
0.362922
0.353655
0.341681
0.327872
0.316033
0.308407
0.306036
0.258243
0.282195
0.311107
0.333462
0.345168
0.352239
0.356703
0.359732
0.361711
0.36267
0.362517
0.361179
0.358524
0.354324
0.348265
0.34001
0.329482
0.316958
0.308048
0.305189
0.26068
0.281485
0.30277
0.3168
0.324966
0.329974
0.333116
0.335071
0.336171
0.336571
0.336362
0.335864
0.335008
0.333652
0.331536
0.328216
0.323047
0.315594
0.307748
0.304528
0.261066
0.270524
0.278169
0.283638
0.287524
0.290384
0.292579
0.294323
0.295735
0.296881
0.297835
0.298761
0.299658
0.30052
0.301335
0.302083
0.30273
0.303222
0.303549
0.303908
)
;

boundaryField
{
    movingWall
    {
        type            zeroGradient;
    }
    fixedWalls
    {
        type            zeroGradient;
    }
    frontAndBack
    {
        type            empty;
    }
}


// ************************************************************************* //
