/*--------------------------------*- C++ -*----------------------------------*\
  =========                 |
  \\      /  F ield         | OpenFOAM: The Open Source CFD Toolbox
   \\    /   O peration     | Website:  https://openfoam.org
    \\  /    A nd           | Version:  10
     \\/     M anipulation  |
\*---------------------------------------------------------------------------*/
FoamFile
{
    format      ascii;
    class       volScalarField;
    location    "0.1";
    object      psi;
}
// * * * * * * * * * * * * * * * * * * * * * * * * * * * * * * * * * * * * * //

dimensions      [0 0 0 0 0 0 0];

internalField   nonuniform List<scalar> 
400
(
3.1826e-08
2.49008e-07
1.68147e-06
8.55044e-06
3.28902e-05
9.76862e-05
0.000228042
0.000419925
0.000604502
0.000698127
0.00075789
0.00071056
0.000490891
0.000323599
0.000155327
4.95083e-05
1.07663e-05
1.67032e-06
1.94035e-07
1.96821e-08
3.39813e-07
2.83387e-06
1.92853e-05
9.58118e-05
0.000352681
0.000990166
0.00217157
0.00375814
0.0051476
0.00581471
0.00622273
0.00583989
0.00425927
0.00292099
0.00144955
0.000474799
0.000104462
1.60471e-05
1.8024e-06
1.69801e-07
3.28137e-06
2.81858e-05
0.00018907
0.000900465
0.00313363
0.00828203
0.0171411
0.0282154
0.0372169
0.0409207
0.0421587
0.0382765
0.0283822
0.0196857
0.00999225
0.00338384
0.000767921
0.000120675
1.36645e-05
1.26593e-06
2.50791e-05
0.000217416
0.00141023
0.00632666
0.0204941
0.0503475
0.0975535
0.152326
0.193111
0.204168
0.196753
0.168093
0.124825
0.0866909
0.0451732
0.0160441
0.00382136
0.000628916
7.40739e-05
6.99993e-06
0.000144662
0.00123474
0.00756156
0.0311474
0.0911724
0.201289
0.35323
0.510335
0.613525
0.619694
0.556921
0.455385
0.346571
0.243745
0.132962
0.0507082
0.0128629
0.00224987
0.000281599
2.80103e-05
0.000595957
0.00485994
0.0272239
0.0990242
0.247928
0.454367
0.652112
0.79118
0.861246
0.860863
0.812139
0.723428
0.599069
0.439374
0.259019
0.109214
0.0297582
0.0055642
0.000749904
8.0569e-05
0.00169584
0.0128435
0.0643591
0.203882
0.436317
0.678179
0.840062
0.922041
0.950554
0.939972
0.899091
0.823406
0.70675
0.545523
0.351864
0.166086
0.04825
0.00959327
0.0013998
0.000165986
0.00367151
0.0253683
0.113113
0.315338
0.593475
0.820322
0.92991
0.968977
0.972917
0.95276
0.907369
0.827831
0.708246
0.549462
0.364956
0.184741
0.055452
0.0115245
0.00181658
0.000241878
0.00731539
0.0453347
0.177222
0.431326
0.716629
0.900366
0.967545
0.981781
0.971685
0.940204
0.879473
0.779681
0.641679
0.476468
0.304677
0.151587
0.0449783
0.00954362
0.00161093
0.000243122
0.012253
0.0704541
0.247512
0.537656
0.806266
0.943141
0.980918
0.979501
0.955889
0.905481
0.817555
0.68658
0.524278
0.354248
0.203657
0.0916538
0.0258253
0.00546063
0.000973938
0.000166311
0.0180091
0.0975915
0.314204
0.62391
0.866353
0.964809
0.982836
0.968971
0.929635
0.85537
0.736725
0.576462
0.397987
0.235177
0.114696
0.0434199
0.0110936
0.00226802
0.000421042
8.20048e-05
0.0242597
0.124472
0.371549
0.687238
0.903263
0.974657
0.979479
0.954904
0.899811
0.802439
0.656964
0.475497
0.291545
0.145868
0.0570279
0.0166909
0.00365593
0.000704162
0.000133972
2.8542e-05
0.030463
0.148606
0.415007
0.726719
0.921641
0.977757
0.975169
0.943534
0.877405
0.763359
0.597759
0.400409
0.215376
0.0898357
0.0275544
0.00614022
0.00120371
0.000255313
5.66886e-05
9.48925e-06
0.0364909
0.168273
0.441794
0.742302
0.923607
0.975712
0.972429
0.940772
0.873802
0.754002
0.573469
0.35668
0.165794
0.0584691
0.0153105
0.00342207
0.000894732
0.000288896
8.75021e-05
1.24381e-05
0.0423331
0.181658
0.448501
0.730178
0.903013
0.959917
0.962783
0.940065
0.88943
0.783821
0.597419
0.348023
0.139269
0.0453192
0.0130531
0.00402465
0.00144421
0.000558129
0.000196972
3.58069e-05
0.0473393
0.185095
0.428172
0.67841
0.838632
0.898326
0.901977
0.880561
0.859572
0.790512
0.638918
0.370507
0.143209
0.0520591
0.0194758
0.00723589
0.00276834
0.00109995
0.00042239
0.000102176
0.0493102
0.172388
0.371643
0.572872
0.708565
0.755688
0.741907
0.700157
0.649632
0.562881
0.432108
0.292108
0.168859
0.0838478
0.0362799
0.0140719
0.0053387
0.00210043
0.000844222
0.000261691
0.0445462
0.138066
0.278819
0.423831
0.499601
0.517707
0.496372
0.452935
0.39831
0.332302
0.259355
0.191694
0.132162
0.0835014
0.0473453
0.023613
0.0103299
0.0039812
0.00160915
0.000592729
0.030641
0.0932024
0.168409
0.226467
0.251893
0.252975
0.238277
0.214472
0.186068
0.155607
0.125479
0.0987764
0.075389
0.0552511
0.038329
0.024615
0.0141445
0.00699564
0.00305781
0.00120505
0.0185185
0.0395237
0.0558916
0.0657857
0.0693968
0.0685059
0.0647443
0.0592814
0.0529007
0.0461214
0.0394001
0.0332152
0.0275821
0.0225069
0.0179849
0.0139988
0.0105164
0.00748543
0.00481518
0.00238294
)
;

boundaryField
{
    movingWall
    {
        type            zeroGradient;
    }
    fixedWalls
    {
        type            zeroGradient;
    }
    frontAndBack
    {
        type            empty;
    }
}


// ************************************************************************* //
