/*--------------------------------*- C++ -*----------------------------------*\
  =========                 |
  \\      /  F ield         | OpenFOAM: The Open Source CFD Toolbox
   \\    /   O peration     | Website:  https://openfoam.org
    \\  /    A nd           | Version:  10
     \\/     M anipulation  |
\*---------------------------------------------------------------------------*/
FoamFile
{
    format      ascii;
    class       volScalarField;
    location    "1.5";
    object      p;
}
// * * * * * * * * * * * * * * * * * * * * * * * * * * * * * * * * * * * * * //

dimensions      [0 2 -2 0 0 0 0];

internalField   nonuniform List<scalar> 
400
(
2.85981e-06
-0.00582514
-0.0129632
-0.0184157
-0.0204334
-0.0182398
-0.0117753
-0.00148507
0.011836
0.0271479
0.0432433
0.0588222
0.0725779
0.0833079
0.0900522
0.0922663
0.0900251
0.084243
0.0768798
0.0710662
0.00578096
-0.0002184
-0.00580447
-0.00954332
-0.0105999
-0.00843379
-0.00297109
0.00547293
0.0163017
0.0287105
0.0417487
0.054385
0.0655856
0.0744092
0.0801196
0.0823151
0.0810765
0.077054
0.0712732
0.0653168
0.0133351
0.00503341
-0.000995824
-0.00442386
-0.00527387
-0.003265
0.00160121
0.00902642
0.0185009
0.0293481
0.0407643
0.0518686
0.0617675
0.0696355
0.0748062
0.0768773
0.0758408
0.072085
0.0658045
0.0575344
0.0201393
0.00869566
0.00122537
-0.00266924
-0.00372303
-0.00188638
0.00273012
0.00978339
0.0187792
0.0290939
0.0399908
0.0506529
0.0602319
0.067915
0.0730023
0.0750006
0.0737649
0.0694551
0.0616019
0.0501013
0.0245018
0.0097728
0.000589314
-0.00398754
-0.00530306
-0.00350836
0.00117358
0.00833335
0.0174608
0.0279479
0.0390838
0.0500688
0.0600478
0.068164
0.0736253
0.0757967
0.0743679
0.0692887
0.0595244
0.0445358
0.0251777
0.00714967
-0.00380248
-0.00905777
-0.0105129
-0.00850088
-0.00335789
0.00442823
0.0143121
0.0256778
0.0378126
0.0499022
0.061047
0.070302
0.0767335
0.0795157
0.0781378
0.0723324
0.0605381
0.0418887
0.0210932
-0.000262815
-0.012935
-0.0187099
-0.0200304
-0.0174147
-0.0113193
-0.00232079
0.00898923
0.021975
0.0359085
0.0499432
0.0631111
0.0743442
0.0825207
0.0865683
0.0857195
0.0794459
0.0656192
0.0430704
0.0111424
-0.0136188
-0.0278757
-0.0338549
-0.0346041
-0.0308582
-0.0232136
-0.0123461
0.00110375
0.0164827
0.0330513
0.0499325
0.0660823
0.0802888
0.0911996
0.0974289
0.0978691
0.0916349
0.0758951
0.0491153
-0.00596769
-0.0342671
-0.0498708
-0.0555493
-0.0550908
-0.0495152
-0.0395942
-0.0261141
-0.00975806
0.00882192
0.0288998
0.0495923
0.0697964
0.0881535
0.103046
0.1127
0.11555
0.110191
0.0928331
0.0614103
-0.0318578
-0.0638768
-0.0804177
-0.085008
-0.0824209
-0.074079
-0.0609816
-0.0440373
-0.0239523
-0.00133783
0.0231446
0.0486599
0.0740945
0.0979712
0.118395
0.133125
0.139988
0.136817
0.11844
0.0819328
-0.0686681
-0.104604
-0.121345
-0.123591
-0.117516
-0.105127
-0.087719
-0.0663262
-0.0416377
-0.0141564
0.0156047
0.0469523
0.0788548
0.109793
0.137623
0.159585
0.172726
0.173777
0.15552
0.11357
-0.119403
-0.159358
-0.174915
-0.172758
-0.161149
-0.14293
-0.11976
-0.0927777
-0.0625781
-0.0294483
0.00637244
0.0444728
0.0840543
0.123702
0.161135
0.193085
0.215667
0.224076
0.20805
0.160632
-0.188629
-0.232242
-0.243939
-0.233948
-0.213695
-0.187155
-0.156373
-0.122502
-0.0858984
-0.0464726
-0.00401492
0.0415384
0.0898416
0.139829
0.189318
0.234689
0.271074
0.291664
0.281742
0.229775
-0.283975
-0.329305
-0.331832
-0.30828
-0.274709
-0.23644
-0.195764
-0.15361
-0.10984
-0.0637453
-0.014438
0.0388633
0.0965542
0.158276
0.222374
0.285288
0.341397
0.381575
0.384914
0.331834
-0.419319
-0.459671
-0.44235
-0.395792
-0.342129
-0.287739
-0.234615
-0.182929
-0.131609
-0.0789847
-0.0232137
0.0374756
0.104554
0.178838
0.259862
0.344971
0.428616
0.4997
0.529675
0.485392
-0.620531
-0.636743
-0.578676
-0.494192
-0.41124
-0.335657
-0.267779
-0.205977
-0.147536
-0.0893821
-0.0284252
0.0383491
0.113808
0.200472
0.299976
0.412026
0.53303
0.651776
0.732772
0.722396
-0.935923
-0.878514
-0.74174
-0.597947
-0.474391
-0.372658
-0.288867
-0.217761
-0.153952
-0.0924626
-0.028716
0.0416969
0.123265
0.220719
0.338927
0.482156
0.651998
0.841343
1.01527
1.0975
-1.47642
-1.20663
-0.920502
-0.691386
-0.517303
-0.387542
-0.290059
-0.213336
-0.148122
-0.087214
-0.0245761
0.0454589
0.128939
0.233072
0.367105
0.542679
0.771294
1.05932
1.40329
1.73014
-2.53965
-1.63055
-1.04444
-0.710957
-0.495749
-0.352091
-0.254529
-0.183581
-0.126168
-0.0735936
-0.0192675
0.0427883
0.119214
0.218784
0.354814
0.547985
0.826394
1.23658
1.91168
2.92419
-4.36666
-2.04463
-0.97354
-0.563179
-0.357844
-0.240145
-0.170118
-0.123781
-0.0874797
-0.0535088
-0.016653
0.027662
0.0846088
0.161731
0.272413
0.4421
0.71822
1.22571
2.41104
4.84853
)
;

boundaryField
{
    movingWall
    {
        type            zeroGradient;
    }
    fixedWalls
    {
        type            zeroGradient;
    }
    frontAndBack
    {
        type            empty;
    }
}


// ************************************************************************* //
