/*--------------------------------*- C++ -*----------------------------------*\
  =========                 |
  \\      /  F ield         | OpenFOAM: The Open Source CFD Toolbox
   \\    /   O peration     | Website:  https://openfoam.org
    \\  /    A nd           | Version:  10
     \\/     M anipulation  |
\*---------------------------------------------------------------------------*/
FoamFile
{
    format      ascii;
    class       volScalarField;
    location    "1.5";
    object      psi;
}
// * * * * * * * * * * * * * * * * * * * * * * * * * * * * * * * * * * * * * //

dimensions      [0 0 0 0 0 0 0];

internalField   nonuniform List<scalar> 
400
(
0.0395869
0.0445884
0.0542979
0.0672347
0.0815576
0.0957587
0.108933
0.120658
0.130791
0.139317
0.14623
0.150978
0.152623
0.150661
0.144729
0.134515
0.119966
0.102013
0.0838948
0.0720756
0.045796
0.0526987
0.0660075
0.0836705
0.102944
0.121635
0.138502
0.153064
0.165293
0.175392
0.183681
0.189591
0.192005
0.190533
0.184812
0.174318
0.158524
0.137657
0.114687
0.09783
0.0570804
0.0669548
0.0859536
0.110642
0.136856
0.161607
0.183416
0.201842
0.216967
0.229068
0.238461
0.244763
0.247425
0.246424
0.241524
0.23207
0.216997
0.195348
0.168564
0.145889
0.0716083
0.0850747
0.110682
0.142769
0.175454
0.205106
0.230238
0.250594
0.266428
0.278124
0.286042
0.290521
0.292088
0.291101
0.287526
0.280826
0.269823
0.252727
0.228644
0.204425
0.0879208
0.105124
0.137195
0.175525
0.21249
0.244132
0.269273
0.28812
0.301398
0.309945
0.314565
0.316342
0.316383
0.315138
0.312709
0.308849
0.302798
0.292985
0.277291
0.258156
0.104963
0.125664
0.163268
0.205832
0.244283
0.27482
0.297003
0.311852
0.320841
0.325453
0.326977
0.326708
0.325605
0.324003
0.32205
0.319778
0.316994
0.312999
0.306177
0.295869
0.122013
0.145734
0.187542
0.232164
0.269646
0.296924
0.314683
0.324943
0.329911
0.331489
0.331099
0.329762
0.327999
0.325996
0.323914
0.321947
0.320297
0.319046
0.317769
0.315232
0.138607
0.164769
0.209369
0.254154
0.289001
0.312081
0.325375
0.331802
0.333989
0.333862
0.332621
0.330858
0.328713
0.32628
0.323727
0.321333
0.319487
0.318682
0.319361
0.321037
0.154468
0.182488
0.228584
0.272109
0.30347
0.322361
0.331967
0.335777
0.336457
0.335652
0.334185
0.332289
0.329855
0.32694
0.323743
0.320603
0.318002
0.316588
0.31717
0.320015
0.169459
0.198802
0.245296
0.286624
0.314292
0.329558
0.336519
0.338859
0.338984
0.338123
0.336733
0.334799
0.332051
0.328559
0.324584
0.320538
0.31698
0.314627
0.314382
0.316936
0.183551
0.213748
0.259755
0.29836
0.322551
0.334993
0.340321
0.342099
0.342313
0.341759
0.340581
0.338599
0.335441
0.331233
0.326332
0.32124
0.31661
0.31323
0.312007
0.313844
0.196793
0.227436
0.272254
0.307919
0.329094
0.339552
0.344116
0.346018
0.346772
0.346767
0.345867
0.343769
0.34005
0.334949
0.328953
0.322658
0.316832
0.312375
0.310167
0.311181
0.209296
0.240013
0.283075
0.315787
0.334506
0.343749
0.348243
0.350793
0.352457
0.353231
0.352663
0.350323
0.345845
0.339662
0.33241
0.324746
0.317572
0.311968
0.308795
0.308942
0.221197
0.25161
0.292421
0.322279
0.339089
0.347727
0.35263
0.356191
0.359106
0.360977
0.360865
0.358072
0.352627
0.345216
0.336629
0.327471
0.318781
0.311929
0.307807
0.307126
0.232598
0.262258
0.300334
0.327464
0.342795
0.351163
0.356588
0.361161
0.36545
0.368827
0.369595
0.366126
0.359687
0.351135
0.341392
0.330774
0.32043
0.312206
0.307123
0.305729
0.243402
0.271713
0.306538
0.331036
0.345152
0.353259
0.358803
0.3637
0.368591
0.372638
0.374784
0.371548
0.365055
0.356144
0.346041
0.334436
0.322482
0.312773
0.306667
0.304699
0.253027
0.279132
0.310144
0.332115
0.345447
0.353329
0.35826
0.36226
0.365685
0.368159
0.369103
0.367577
0.363628
0.357342
0.34883
0.337688
0.324751
0.313617
0.306379
0.303946
0.260077
0.282685
0.309572
0.330016
0.34057
0.346894
0.3509
0.353671
0.355562
0.356586
0.356623
0.355557
0.353251
0.349474
0.343915
0.336248
0.326398
0.314631
0.306212
0.303381
0.262359
0.282023
0.301853
0.314771
0.322242
0.326814
0.329689
0.331494
0.332531
0.332937
0.332788
0.332367
0.331607
0.330374
0.328422
0.325329
0.320485
0.313478
0.306074
0.302925
0.262694
0.271639
0.278802
0.283897
0.287506
0.290159
0.292194
0.293811
0.295121
0.296184
0.297069
0.297928
0.298758
0.299553
0.300303
0.300988
0.301572
0.302002
0.302258
0.30248
)
;

boundaryField
{
    movingWall
    {
        type            zeroGradient;
    }
    fixedWalls
    {
        type            zeroGradient;
    }
    frontAndBack
    {
        type            empty;
    }
}


// ************************************************************************* //
