/*--------------------------------*- C++ -*----------------------------------*\
  =========                 |
  \\      /  F ield         | OpenFOAM: The Open Source CFD Toolbox
   \\    /   O peration     | Website:  https://openfoam.org
    \\  /    A nd           | Version:  10
     \\/     M anipulation  |
\*---------------------------------------------------------------------------*/
FoamFile
{
    format      ascii;
    class       volScalarField;
    location    "2";
    object      p;
}
// * * * * * * * * * * * * * * * * * * * * * * * * * * * * * * * * * * * * * //

dimensions      [0 2 -2 0 0 0 0];

internalField   nonuniform List<scalar> 
400
(
2.32697e-06
-0.00582604
-0.0129642
-0.0184167
-0.0204344
-0.0182408
-0.0117762
-0.00148603
0.0118351
0.0271469
0.0432423
0.0588211
0.0725769
0.0833068
0.0900512
0.0922654
0.0900241
0.084242
0.0768787
0.0710651
0.00578005
-0.00021935
-0.00580543
-0.00954431
-0.0106009
-0.00843484
-0.00297213
0.00547192
0.0163007
0.0287095
0.0417477
0.0543839
0.0655845
0.0744081
0.0801186
0.0823141
0.0810755
0.077053
0.0712722
0.0653158
0.0133341
0.00503243
-0.000996785
-0.00442482
-0.00527486
-0.00326603
0.00160015
0.00902536
0.0184999
0.0293471
0.0407633
0.0518676
0.0617665
0.0696344
0.0748052
0.0768763
0.0758398
0.072084
0.0658035
0.0575334
0.0201383
0.00869465
0.00122438
-0.00267019
-0.00372399
-0.00188738
0.00272907
0.00978231
0.0187781
0.0290929
0.0399899
0.0506519
0.0602309
0.0679139
0.0730012
0.0749995
0.0737639
0.0694541
0.0616009
0.0501003
0.0245008
0.00977176
0.000588289
-0.00398853
-0.00530401
-0.00350931
0.00117258
0.00833229
0.0174597
0.0279468
0.0390828
0.0500678
0.0600468
0.068163
0.0736243
0.0757956
0.0743669
0.0692877
0.0595234
0.0445349
0.0251767
0.00714863
-0.00380354
-0.0090588
-0.0105138
-0.00850182
-0.00335884
0.00442723
0.0143111
0.0256767
0.0378116
0.0499012
0.061046
0.070301
0.0767325
0.0795147
0.0781367
0.0723313
0.060537
0.0418877
0.0210922
-0.00026383
-0.0129361
-0.018711
-0.0200315
-0.0174157
-0.0113202
-0.00232174
0.00898823
0.0219739
0.0359074
0.0499422
0.06311
0.0743432
0.0825198
0.0865673
0.0857185
0.0794449
0.0656181
0.0430694
0.0111414
-0.0136197
-0.0278767
-0.0338559
-0.0346052
-0.0308592
-0.0232146
-0.0123471
0.0011028
0.0164817
0.0330503
0.0499314
0.0660812
0.0802878
0.0911986
0.0974279
0.0978681
0.0916339
0.0758941
0.0491142
-0.00596868
-0.0342681
-0.0498717
-0.0555504
-0.0550919
-0.0495163
-0.0395952
-0.0261151
-0.00975899
0.00882097
0.0288988
0.0495913
0.0697953
0.0881524
0.103045
0.112699
0.115549
0.11019
0.0928321
0.0614092
-0.0318588
-0.0638778
-0.0804186
-0.0850089
-0.0824219
-0.0740801
-0.0609827
-0.0440384
-0.0239533
-0.00133877
0.0231436
0.0486589
0.0740935
0.0979702
0.118394
0.133124
0.139987
0.136816
0.118439
0.0819317
-0.0686691
-0.104605
-0.121346
-0.123592
-0.117517
-0.105128
-0.0877201
-0.0663273
-0.0416388
-0.0141574
0.0156037
0.0469513
0.0788538
0.109792
0.137622
0.159584
0.172725
0.173776
0.155519
0.113569
-0.119404
-0.159359
-0.174916
-0.172759
-0.161149
-0.142931
-0.119761
-0.0927788
-0.0625792
-0.0294493
0.00637144
0.0444718
0.0840534
0.123701
0.161134
0.193084
0.215666
0.224075
0.208049
0.160631
-0.18863
-0.232244
-0.24394
-0.233949
-0.213696
-0.187156
-0.156374
-0.122503
-0.0858995
-0.0464737
-0.00401596
0.0415373
0.0898407
0.139828
0.189317
0.234688
0.271073
0.291663
0.281741
0.229774
-0.283976
-0.329306
-0.331833
-0.308281
-0.27471
-0.236441
-0.195765
-0.153611
-0.109841
-0.0637464
-0.0144391
0.0388623
0.0965531
0.158275
0.222373
0.285287
0.341396
0.381574
0.384913
0.331833
-0.41932
-0.459672
-0.442351
-0.395793
-0.34213
-0.28774
-0.234616
-0.18293
-0.13161
-0.0789857
-0.0232147
0.0374746
0.104552
0.178837
0.259861
0.34497
0.428615
0.499699
0.529674
0.485391
-0.620532
-0.636744
-0.578677
-0.494193
-0.411241
-0.335658
-0.26778
-0.205978
-0.147537
-0.0893831
-0.0284262
0.0383481
0.113807
0.200471
0.299975
0.412025
0.533029
0.651775
0.732771
0.722395
-0.935924
-0.878515
-0.741741
-0.597948
-0.474393
-0.372659
-0.288868
-0.217762
-0.153953
-0.0924636
-0.028717
0.0416959
0.123264
0.220718
0.338926
0.482155
0.651997
0.841342
1.01527
1.0975
-1.47642
-1.20663
-0.920503
-0.691387
-0.517304
-0.387543
-0.29006
-0.213337
-0.148123
-0.087215
-0.0245771
0.0454579
0.128938
0.233071
0.367104
0.542678
0.771293
1.05932
1.40329
1.73014
-2.53965
-1.63055
-1.04444
-0.710958
-0.49575
-0.352092
-0.25453
-0.183582
-0.126169
-0.0735946
-0.0192686
0.0427873
0.119213
0.218783
0.354813
0.547984
0.826393
1.23658
1.91168
2.92419
-4.36666
-2.04463
-0.973541
-0.56318
-0.357845
-0.240146
-0.170119
-0.123782
-0.0874807
-0.0535098
-0.0166541
0.027661
0.0846078
0.16173
0.272412
0.442099
0.718219
1.22571
2.41104
4.84853
)
;

boundaryField
{
    movingWall
    {
        type            zeroGradient;
    }
    fixedWalls
    {
        type            zeroGradient;
    }
    frontAndBack
    {
        type            empty;
    }
}


// ************************************************************************* //
