/*--------------------------------*- C++ -*----------------------------------*\
  =========                 |
  \\      /  F ield         | OpenFOAM: The Open Source CFD Toolbox
   \\    /   O peration     | Website:  https://openfoam.org
    \\  /    A nd           | Version:  10
     \\/     M anipulation  |
\*---------------------------------------------------------------------------*/
FoamFile
{
    format      ascii;
    class       volScalarField;
    location    "2";
    object      psi;
}
// * * * * * * * * * * * * * * * * * * * * * * * * * * * * * * * * * * * * * //

dimensions      [0 0 0 0 0 0 0];

internalField   nonuniform List<scalar> 
400
(
0.0681784
0.0770535
0.0938961
0.115461
0.137826
0.157986
0.174542
0.18736
0.19692
0.203842
0.208635
0.211324
0.211576
0.209191
0.203941
0.195525
0.183755
0.169162
0.154212
0.144313
0.0762776
0.0876477
0.108435
0.133946
0.159051
0.18053
0.197407
0.21007
0.219376
0.226167
0.231127
0.234239
0.235034
0.233354
0.228958
0.22143
0.210278
0.195459
0.178863
0.166421
0.0903288
0.104849
0.130475
0.160239
0.187946
0.210644
0.22805
0.241049
0.250694
0.257825
0.263018
0.266294
0.267476
0.266583
0.263467
0.257704
0.248582
0.235382
0.21877
0.204365
0.107251
0.124699
0.154615
0.187611
0.216823
0.23987
0.257126
0.269791
0.278962
0.285397
0.289571
0.291821
0.292524
0.291896
0.289926
0.286333
0.280488
0.271394
0.258447
0.245158
0.124895
0.144699
0.177883
0.212739
0.242048
0.264101
0.279839
0.290723
0.297955
0.3024
0.304673
0.305446
0.305343
0.304609
0.303309
0.301353
0.298416
0.293787
0.286448
0.277404
0.142053
0.163598
0.198945
0.234287
0.262347
0.282165
0.295253
0.303399
0.308046
0.310278
0.310899
0.310621
0.309924
0.308966
0.307835
0.306583
0.305189
0.303434
0.300701
0.29662
0.158151
0.180887
0.217366
0.252024
0.277841
0.294714
0.304778
0.310195
0.312639
0.313311
0.313011
0.312241
0.311211
0.31
0.308703
0.307453
0.306415
0.305734
0.305371
0.304824
0.172972
0.19644
0.233176
0.266278
0.289315
0.30313
0.31047
0.313792
0.314847
0.314746
0.314101
0.313154
0.31191
0.310415
0.308779
0.307185
0.305883
0.305195
0.305451
0.306522
0.18649
0.21032
0.24661
0.277601
0.297731
0.308803
0.314055
0.316065
0.316467
0.316136
0.315437
0.314417
0.312971
0.311143
0.309075
0.306989
0.305188
0.30406
0.304086
0.305482
0.198774
0.222673
0.257986
0.286581
0.303973
0.312829
0.31669
0.318057
0.31831
0.318039
0.317398
0.316317
0.314629
0.312402
0.309821
0.307159
0.304766
0.303075
0.302603
0.303755
0.209944
0.233681
0.267626
0.29375
0.308746
0.315972
0.319056
0.320275
0.320697
0.320642
0.3201
0.318933
0.316937
0.314225
0.311043
0.307719
0.304667
0.302372
0.301356
0.302108
0.220149
0.243535
0.275829
0.299549
0.312569
0.318713
0.321515
0.322945
0.323754
0.324028
0.323609
0.322313
0.319922
0.316622
0.312738
0.308654
0.30486
0.301922
0.300365
0.300699
0.229556
0.25242
0.282844
0.30431
0.315777
0.321306
0.324202
0.326109
0.327498
0.328231
0.327972
0.326475
0.323577
0.319583
0.314904
0.30996
0.305322
0.301683
0.299584
0.299507
0.238327
0.260486
0.288849
0.308237
0.318527
0.323781
0.327003
0.329564
0.331724
0.333117
0.333109
0.331293
0.327778
0.323019
0.317513
0.311635
0.306044
0.301628
0.29897
0.298495
0.24658
0.267797
0.293898
0.311372
0.320754
0.325884
0.329432
0.332591
0.335573
0.337885
0.338419
0.336176
0.332064
0.326626
0.320427
0.313652
0.307025
0.301742
0.298492
0.297645
0.254286
0.274226
0.29784
0.313528
0.322155
0.327105
0.330657
0.333925
0.337206
0.339868
0.341258
0.339238
0.335174
0.329588
0.323227
0.315876
0.30825
0.302026
0.298128
0.296945
0.261078
0.27925
0.300132
0.314172
0.322311
0.327088
0.330178
0.332761
0.334996
0.336601
0.337222
0.336329
0.333937
0.33008
0.3248
0.317808
0.309599
0.30248
0.297857
0.296376
0.266039
0.281678
0.29976
0.312835
0.319308
0.323146
0.325604
0.327334
0.328532
0.329194
0.329243
0.328618
0.327232
0.324932
0.32151
0.316735
0.310528
0.303033
0.297657
0.295917
0.267688
0.281273
0.294615
0.302984
0.307708
0.310562
0.312351
0.313473
0.314123
0.314383
0.3143
0.314048
0.313586
0.312828
0.311617
0.309682
0.306628
0.30218
0.297467
0.295531
0.267986
0.274174
0.279051
0.28247
0.284872
0.286632
0.287981
0.289056
0.28993
0.290643
0.291242
0.291825
0.29239
0.292935
0.293452
0.29393
0.294347
0.294672
0.2949
0.295148
)
;

boundaryField
{
    movingWall
    {
        type            zeroGradient;
    }
    fixedWalls
    {
        type            zeroGradient;
    }
    frontAndBack
    {
        type            empty;
    }
}


// ************************************************************************* //
