/*--------------------------------*- C++ -*----------------------------------*\
  =========                 |
  \\      /  F ield         | OpenFOAM: The Open Source CFD Toolbox
   \\    /   O peration     | Website:  https://openfoam.org
    \\  /    A nd           | Version:  10
     \\/     M anipulation  |
\*---------------------------------------------------------------------------*/
FoamFile
{
    format      ascii;
    class       volScalarField;
    location    "0.5";
    object      psi;
}
// * * * * * * * * * * * * * * * * * * * * * * * * * * * * * * * * * * * * * //

dimensions      [0 0 0 0 0 0 0];

internalField   nonuniform List<scalar> 
400
(
0.00173471
0.0034035
0.00701058
0.0123467
0.018477
0.024132
0.0283611
0.0308195
0.0316273
0.0310761
0.0294116
0.0265755
0.022573
0.0178663
0.0130555
0.00868238
0.00514408
0.00264704
0.00117733
0.000550163
0.00408791
0.00799026
0.0157953
0.0262655
0.0369271
0.0454406
0.0506539
0.0525709
0.0517747
0.048949
0.044686
0.039134
0.0325807
0.0257317
0.0191573
0.013232
0.00824397
0.00446443
0.00206648
0.000975305
0.0100639
0.0189748
0.0353035
0.0547612
0.0720129
0.0835302
0.08845
0.0876288
0.0824962
0.0744651
0.0647997
0.0545896
0.0448652
0.0361009
0.0281583
0.020741
0.0138416
0.00794563
0.00380956
0.00182152
0.0212296
0.0380891
0.0662808
0.0958314
0.117947
0.128764
0.128798
0.120672
0.107488
0.0921809
0.077379
0.0653692
0.0566225
0.0497454
0.0428696
0.0346645
0.0249473
0.0149681
0.00708879
0.00317582
0.0384572
0.0651695
0.10589
0.142751
0.16414
0.167689
0.157069
0.138157
0.116862
0.0982004
0.0858578
0.0810585
0.080577
0.0800596
0.0759371
0.0661902
0.0507214
0.0318881
0.0149309
0.00584135
0.0613675
0.0980483
0.148853
0.187211
0.200789
0.191425
0.168071
0.141059
0.119085
0.107805
0.109323
0.120338
0.132524
0.139673
0.137811
0.124876
0.100602
0.067466
0.0332731
0.0120757
0.0886224
0.133697
0.189987
0.223274
0.223818
0.200524
0.168932
0.143262
0.132633
0.139865
0.162106
0.190463
0.213733
0.226236
0.225041
0.208485
0.175499
0.126589
0.0687861
0.0257054
0.118524
0.169305
0.225783
0.248866
0.235064
0.202169
0.17162
0.158705
0.169126
0.199603
0.241054
0.281281
0.31006
0.324083
0.322226
0.303447
0.26562
0.205721
0.125058
0.0514179
0.149481
0.202815
0.254723
0.265056
0.23947
0.204497
0.184684
0.192446
0.226854
0.277557
0.330853
0.374842
0.403123
0.415316
0.412122
0.393236
0.355923
0.293899
0.199722
0.0935806
0.180239
0.233011
0.276855
0.274528
0.242107
0.212692
0.21009
0.240539
0.295391
0.358737
0.415326
0.456265
0.479878
0.488275
0.483539
0.466107
0.433436
0.377841
0.284399
0.154671
0.209944
0.259392
0.293164
0.280207
0.24638
0.227899
0.244363
0.294385
0.362724
0.43065
0.484066
0.518067
0.535212
0.539267
0.53309
0.517701
0.491357
0.447184
0.367477
0.233081
0.238101
0.281957
0.305002
0.284402
0.253492
0.247948
0.281161
0.34477
0.419376
0.485954
0.532854
0.558734
0.569532
0.569859
0.562717
0.549369
0.529019
0.497055
0.438164
0.321062
0.26448
0.301002
0.313712
0.288467
0.262687
0.268587
0.313229
0.383518
0.458655
0.520837
0.560633
0.579056
0.585046
0.583313
0.576305
0.565092
0.54956
0.527739
0.489809
0.4054
0.288976
0.316975
0.320471
0.29289
0.271923
0.284626
0.333222
0.402989
0.474322
0.531343
0.565585
0.578647
0.582866
0.582037
0.577253
0.569001
0.557374
0.542721
0.521184
0.472471
0.311465
0.330451
0.326419
0.297875
0.279153
0.291639
0.334998
0.396003
0.458626
0.509685
0.541425
0.553724
0.561579
0.566405
0.567266
0.563991
0.556355
0.546497
0.535441
0.514811
0.331729
0.342321
0.333218
0.30475
0.285048
0.290326
0.31982
0.3644
0.413326
0.450998
0.478179
0.499188
0.518505
0.535059
0.546084
0.551159
0.549015
0.542969
0.537676
0.533727
0.34963
0.354139
0.343859
0.317762
0.296224
0.294378
0.310375
0.335464
0.362968
0.386637
0.407231
0.432832
0.460955
0.488598
0.51253
0.529684
0.536073
0.5346
0.53259
0.536287
0.365251
0.367706
0.361417
0.340204
0.325068
0.32152
0.327509
0.339102
0.353533
0.369025
0.385614
0.405522
0.428329
0.453143
0.478221
0.500555
0.516051
0.521982
0.523179
0.530179
0.377991
0.382567
0.382859
0.376639
0.372935
0.373366
0.377328
0.383853
0.392223
0.401989
0.412856
0.424386
0.436712
0.449938
0.464046
0.478689
0.492698
0.503598
0.510093
0.520414
0.388504
0.393145
0.397303
0.400606
0.404029
0.407876
0.412169
0.41686
0.421903
0.427263
0.432892
0.43872
0.444789
0.451149
0.457869
0.465049
0.472851
0.481592
0.492234
0.507853
)
;

boundaryField
{
    movingWall
    {
        type            zeroGradient;
    }
    fixedWalls
    {
        type            zeroGradient;
    }
    frontAndBack
    {
        type            empty;
    }
}


// ************************************************************************* //
