/*--------------------------------*- C++ -*----------------------------------*\
  =========                 |
  \\      /  F ield         | OpenFOAM: The Open Source CFD Toolbox
   \\    /   O peration     | Website:  https://openfoam.org
    \\  /    A nd           | Version:  10
     \\/     M anipulation  |
\*---------------------------------------------------------------------------*/
FoamFile
{
    format      ascii;
    class       volScalarField;
    location    "1.1";
    object      p;
}
// * * * * * * * * * * * * * * * * * * * * * * * * * * * * * * * * * * * * * //

dimensions      [0 2 -2 0 0 0 0];

internalField   nonuniform List<scalar> 
400
(
3.39527e-06
-0.00582422
-0.0129622
-0.0184147
-0.0204324
-0.0182388
-0.0117743
-0.00148408
0.0118371
0.027149
0.0432445
0.0588232
0.0725789
0.0833088
0.0900531
0.0922673
0.0900261
0.0842442
0.0768809
0.0710674
0.00578186
-0.000217442
-0.00580346
-0.00954228
-0.0105989
-0.00843278
-0.00297012
0.00547387
0.0163026
0.0287115
0.0417497
0.0543861
0.0655867
0.0744102
0.0801206
0.082316
0.0810775
0.077055
0.0712742
0.065318
0.0133361
0.00503437
-0.000994852
-0.00442284
-0.0052728
-0.00326392
0.00160224
0.00902738
0.0185018
0.029349
0.0407653
0.0518696
0.0617686
0.0696366
0.0748073
0.0768783
0.0758417
0.0720859
0.0658055
0.0575355
0.0201404
0.00869663
0.00122631
-0.00266826
-0.00372199
-0.00188529
0.00273121
0.00978442
0.0187801
0.0290948
0.0399918
0.0506539
0.0602329
0.0679161
0.0730034
0.0750016
0.0737659
0.0694561
0.0616028
0.0501023
0.0245029
0.00977381
0.000590266
-0.00398661
-0.00530208
-0.0035073
0.00117469
0.00833445
0.0174618
0.0279488
0.0390847
0.0500697
0.0600488
0.068165
0.0736264
0.0757978
0.074369
0.0692897
0.0595254
0.0445368
0.0251787
0.00715073
-0.00380148
-0.00905683
-0.0105119
-0.0084999
-0.00335682
0.00442936
0.0143132
0.0256788
0.0378136
0.0499031
0.0610479
0.070303
0.0767345
0.0795168
0.0781389
0.0723334
0.0605391
0.0418897
0.0210942
-0.000261734
-0.012934
-0.0187089
-0.0200295
-0.0174138
-0.0113183
-0.00231972
0.00899036
0.0219761
0.0359095
0.0499442
0.063112
0.0743451
0.0825217
0.0865694
0.0857206
0.079447
0.0656202
0.0430714
0.0111434
-0.0136177
-0.0278746
-0.0338538
-0.0346032
-0.0308573
-0.0232127
-0.0123452
0.00110482
0.0164838
0.0330525
0.0499335
0.0660832
0.0802897
0.0912006
0.0974299
0.0978702
0.0916359
0.0758962
0.0491163
-0.00596675
-0.0342661
-0.0498697
-0.0555482
-0.0550897
-0.0495143
-0.0395933
-0.0261132
-0.00975709
0.00882298
0.028901
0.0495935
0.0697975
0.0881545
0.103047
0.112701
0.11555
0.110192
0.0928342
0.0614113
-0.0318568
-0.0638759
-0.0804166
-0.0850069
-0.0824197
-0.074078
-0.0609806
-0.0440364
-0.0239514
-0.00133687
0.0231456
0.048661
0.0740956
0.0979723
0.118396
0.133126
0.139989
0.136818
0.118441
0.0819338
-0.0686671
-0.104603
-0.121344
-0.12359
-0.117515
-0.105126
-0.0877179
-0.0663252
-0.0416368
-0.0141555
0.0156057
0.0469533
0.0788559
0.109794
0.137624
0.159586
0.172727
0.173778
0.155521
0.113571
-0.119402
-0.159357
-0.174915
-0.172757
-0.161148
-0.142928
-0.119759
-0.0927766
-0.0625771
-0.0294474
0.00637336
0.0444737
0.0840554
0.123703
0.161136
0.193086
0.215668
0.224077
0.208051
0.160633
-0.188628
-0.232241
-0.243938
-0.233947
-0.213694
-0.187154
-0.156372
-0.122501
-0.0858973
-0.0464716
-0.00401397
0.0415393
0.0898426
0.13983
0.189319
0.23469
0.271075
0.291665
0.281743
0.229776
-0.283974
-0.329304
-0.331831
-0.308279
-0.274708
-0.236439
-0.195763
-0.153609
-0.109839
-0.0637443
-0.014437
0.0388643
0.0965551
0.158277
0.222375
0.285289
0.341398
0.381576
0.384915
0.331835
-0.419318
-0.45967
-0.442349
-0.395791
-0.342128
-0.287738
-0.234614
-0.182928
-0.131608
-0.0789836
-0.0232126
0.0374767
0.104555
0.178839
0.259863
0.344971
0.428617
0.499701
0.529676
0.485393
-0.62053
-0.636742
-0.578675
-0.494191
-0.411239
-0.335656
-0.267778
-0.205976
-0.147535
-0.0893811
-0.0284242
0.0383502
0.113809
0.200474
0.299977
0.412027
0.533031
0.651777
0.732773
0.722397
-0.935922
-0.878513
-0.741739
-0.597946
-0.47439
-0.372657
-0.288866
-0.21776
-0.153951
-0.0924616
-0.028715
0.041698
0.123266
0.22072
0.338928
0.482157
0.651999
0.841344
1.01527
1.09751
-1.47642
-1.20663
-0.920501
-0.691385
-0.517302
-0.387541
-0.290058
-0.213334
-0.148121
-0.087213
-0.0245752
0.0454599
0.12894
0.233073
0.367106
0.542681
0.771295
1.05932
1.40329
1.73014
-2.53965
-1.63055
-1.04444
-0.710956
-0.495748
-0.35209
-0.254528
-0.18358
-0.126167
-0.0735925
-0.0192666
0.0427893
0.119215
0.218785
0.354815
0.547986
0.826395
1.23658
1.91168
2.9242
-4.36666
-2.04463
-0.973539
-0.563178
-0.357843
-0.240144
-0.170117
-0.12378
-0.0874786
-0.0535077
-0.016652
0.027663
0.0846098
0.161732
0.272414
0.442101
0.718221
1.22571
2.41104
4.84853
)
;

boundaryField
{
    movingWall
    {
        type            zeroGradient;
    }
    fixedWalls
    {
        type            zeroGradient;
    }
    frontAndBack
    {
        type            empty;
    }
}


// ************************************************************************* //
