/*--------------------------------*- C++ -*----------------------------------*\
  =========                 |
  \\      /  F ield         | OpenFOAM: The Open Source CFD Toolbox
   \\    /   O peration     | Website:  https://openfoam.org
    \\  /    A nd           | Version:  10
     \\/     M anipulation  |
\*---------------------------------------------------------------------------*/
FoamFile
{
    format      ascii;
    class       volScalarField;
    location    "1.1";
    object      psi;
}
// * * * * * * * * * * * * * * * * * * * * * * * * * * * * * * * * * * * * * //

dimensions      [0 0 0 0 0 0 0];

internalField   nonuniform List<scalar> 
400
(
0.0233203
0.0273128
0.0342209
0.0418913
0.0486569
0.0540156
0.0583383
0.0622327
0.0661437
0.0702546
0.0745124
0.0781408
0.0797766
0.0785425
0.073906
0.0656641
0.05414
0.0406395
0.0279717
0.0202553
0.029306
0.0339893
0.0420069
0.0511935
0.0601899
0.0688676
0.0776129
0.0866797
0.0960383
0.105505
0.114917
0.122886
0.127177
0.126801
0.121171
0.109888
0.0929617
0.0716378
0.0499237
0.0353399
0.0399115
0.0452933
0.0552456
0.0680719
0.0829112
0.0996026
0.117818
0.136784
0.155508
0.173052
0.188693
0.200493
0.206391
0.206014
0.199055
0.184834
0.16242
0.1317
0.0965148
0.0695223
0.0532141
0.0594865
0.0729041
0.0924199
0.116951
0.145177
0.175111
0.204416
0.23093
0.252982
0.269471
0.279494
0.28327
0.281593
0.274572
0.261287
0.239683
0.207103
0.163811
0.124078
0.0679769
0.0757344
0.0945588
0.123299
0.159185
0.198488
0.237021
0.271062
0.298045
0.316752
0.327165
0.330939
0.330729
0.327831
0.322433
0.313671
0.299304
0.275201
0.236838
0.192746
0.0835297
0.0935781
0.11933
0.158036
0.203708
0.24958
0.289721
0.320307
0.340066
0.349916
0.352128
0.350295
0.347416
0.344258
0.34083
0.336686
0.330567
0.319321
0.296713
0.261695
0.0994927
0.112547
0.145802
0.193229
0.244745
0.291035
0.325955
0.347456
0.357051
0.35834
0.355308
0.351368
0.347981
0.345105
0.342642
0.340675
0.339253
0.337601
0.332003
0.315792
0.1156
0.1321
0.17244
0.226006
0.278768
0.320364
0.346376
0.357908
0.359435
0.356162
0.352011
0.348688
0.345871
0.343085
0.340316
0.338037
0.337153
0.338835
0.34343
0.345996
0.131632
0.151701
0.197972
0.25464
0.304828
0.339026
0.355976
0.360109
0.357741
0.353942
0.351162
0.349277
0.346959
0.343749
0.339837
0.335911
0.333163
0.333515
0.339911
0.352919
0.147411
0.170897
0.221547
0.27854
0.323785
0.35022
0.360189
0.360546
0.357872
0.355824
0.35503
0.354231
0.351877
0.347758
0.342308
0.336352
0.331091
0.328351
0.331441
0.344861
0.162811
0.189371
0.242747
0.297927
0.337305
0.35715
0.362914
0.36253
0.361615
0.361994
0.36285
0.3625
0.359573
0.354174
0.34699
0.338988
0.331373
0.325679
0.324342
0.332209
0.177774
0.206945
0.261478
0.313449
0.347122
0.362196
0.366218
0.367012
0.368671
0.37138
0.373389
0.372974
0.369072
0.362108
0.353032
0.342968
0.333229
0.325257
0.320556
0.322162
0.192311
0.223558
0.27785
0.325865
0.354622
0.366732
0.370725
0.373614
0.377996
0.382826
0.385705
0.384896
0.379752
0.371029
0.359936
0.347715
0.335886
0.326095
0.319393
0.316948
0.206494
0.239202
0.292021
0.335815
0.360674
0.371206
0.376001
0.381078
0.387998
0.394945
0.398791
0.397413
0.390956
0.380482
0.367423
0.352984
0.338929
0.327415
0.319506
0.31541
0.220374
0.253796
0.304035
0.343649
0.365579
0.375318
0.380796
0.387196
0.395829
0.404857
0.410334
0.408544
0.401255
0.389562
0.37508
0.358644
0.342235
0.328858
0.319936
0.315526
0.233783
0.266933
0.313553
0.349226
0.369119
0.378445
0.383872
0.389904
0.398263
0.406983
0.41386
0.413441
0.407317
0.396108
0.381799
0.364348
0.345767
0.330362
0.320273
0.315903
0.245927
0.277397
0.31935
0.35147
0.370537
0.37997
0.385116
0.389945
0.395336
0.400448
0.404109
0.404929
0.402279
0.395648
0.384761
0.368846
0.349263
0.331971
0.320446
0.316008
0.25494
0.282601
0.319109
0.349274
0.364769
0.373265
0.378363
0.382092
0.385127
0.387439
0.388718
0.3886
0.386797
0.382824
0.37602
0.365647
0.351381
0.333566
0.320494
0.315808
0.258023
0.282136
0.309163
0.328083
0.339251
0.346068
0.350399
0.353244
0.355087
0.356126
0.356446
0.356398
0.355887
0.354704
0.352464
0.348492
0.34178
0.331551
0.320365
0.315408
0.258667
0.269666
0.279146
0.286196
0.291313
0.295138
0.298117
0.300524
0.302511
0.304161
0.305569
0.30695
0.308301
0.309613
0.31087
0.312042
0.313074
0.313878
0.314409
0.314822
)
;

boundaryField
{
    movingWall
    {
        type            zeroGradient;
    }
    fixedWalls
    {
        type            zeroGradient;
    }
    frontAndBack
    {
        type            empty;
    }
}


// ************************************************************************* //
