/*--------------------------------*- C++ -*----------------------------------*\
  =========                 |
  \\      /  F ield         | OpenFOAM: The Open Source CFD Toolbox
   \\    /   O peration     | Website:  https://openfoam.org
    \\  /    A nd           | Version:  10
     \\/     M anipulation  |
\*---------------------------------------------------------------------------*/
FoamFile
{
    format      ascii;
    class       volScalarField;
    location    "0.4";
    object      psi;
}
// * * * * * * * * * * * * * * * * * * * * * * * * * * * * * * * * * * * * * //

dimensions      [0 0 0 0 0 0 0];

internalField   nonuniform List<scalar> 
400
(
0.000553333
0.00131717
0.00319064
0.00639516
0.0106245
0.0150653
0.0188532
0.0214934
0.0229331
0.0233582
0.0229354
0.0213903
0.0184399
0.014476
0.0101996
0.00632889
0.00337644
0.00151007
0.000561989
0.00021192
0.00162421
0.00388874
0.00908086
0.0172205
0.0268866
0.0359259
0.0427218
0.0467398
0.0482251
0.0476645
0.0454646
0.0411866
0.0346258
0.0268105
0.01895
0.0120288
0.00667903
0.00313502
0.00121893
0.00046558
0.00482309
0.0112235
0.0247942
0.0440148
0.0645049
0.0816556
0.0929346
0.0979932
0.0975716
0.0925928
0.083859
0.0716689
0.0573897
0.0431427
0.0303667
0.0197487
0.0115451
0.00582203
0.00244939
0.000999483
0.0119094
0.0264948
0.0549112
0.0911051
0.125511
0.1506
0.163412
0.164376
0.155337
0.138509
0.116302
0.0920635
0.0697742
0.0512525
0.0365123
0.0248127
0.0155146
0.00846563
0.00385943
0.00170035
0.0245332
0.0516302
0.100072
0.155201
0.200738
0.226963
0.231979
0.218691
0.192037
0.157718
0.121636
0.0903618
0.0674472
0.0515005
0.039714
0.0296996
0.0202981
0.011778
0.00545631
0.00240321
0.0432833
0.085863
0.155657
0.225719
0.273237
0.288698
0.27423
0.23824
0.191404
0.144293
0.105582
0.0805264
0.0671769
0.0598448
0.053507
0.0450689
0.0335988
0.0204252
0.00907158
0.00337823
0.0675459
0.126421
0.214661
0.29109
0.328794
0.322508
0.28223
0.224525
0.166301
0.120725
0.0947526
0.0870958
0.0887267
0.091425
0.0896996
0.080701
0.0638805
0.0412736
0.0187575
0.00582858
0.0960098
0.169952
0.270741
0.343498
0.361621
0.32876
0.265628
0.196934
0.142672
0.113459
0.109771
0.122599
0.13847
0.149105
0.149861
0.13853
0.114573
0.0794698
0.0396183
0.012009
0.127218
0.213508
0.319672
0.380064
0.373709
0.316743
0.240768
0.175421
0.138633
0.133974
0.153833
0.184032
0.210254
0.225659
0.22702
0.212912
0.182555
0.135673
0.0758775
0.0251107
0.159894
0.254959
0.359517
0.401839
0.37134
0.297796
0.221019
0.170741
0.158504
0.179244
0.218749
0.260989
0.293165
0.310377
0.310971
0.29448
0.260096
0.20557
0.128914
0.0491124
0.1931
0.293045
0.390182
0.412146
0.361746
0.280854
0.213147
0.184174
0.197232
0.239721
0.29342
0.342649
0.377105
0.393782
0.392575
0.374149
0.338221
0.281504
0.196045
0.0882711
0.226293
0.327254
0.412811
0.415156
0.351098
0.270986
0.217954
0.211053
0.246002
0.305072
0.368169
0.420697
0.454976
0.46962
0.465904
0.445663
0.409692
0.355248
0.270845
0.145481
0.259307
0.357651
0.429271
0.415017
0.343825
0.269848
0.232406
0.244045
0.295354
0.366141
0.43551
0.489356
0.522456
0.534678
0.528326
0.506205
0.470476
0.420482
0.345038
0.219402
0.292236
0.384698
0.441873
0.415608
0.342989
0.277164
0.251942
0.275196
0.335929
0.41425
0.488696
0.543626
0.576272
0.587233
0.57922
0.555543
0.51961
0.473968
0.411107
0.302364
0.325179
0.409136
0.453348
0.42089
0.351567
0.293236
0.273647
0.298526
0.359285
0.439691
0.519021
0.576416
0.611713
0.62493
0.618156
0.594545
0.558128
0.515386
0.464416
0.382112
0.357747
0.431869
0.466987
0.435595
0.374412
0.32287
0.302858
0.319725
0.371503
0.440671
0.515419
0.576838
0.620765
0.642733
0.642899
0.623516
0.587713
0.546347
0.503934
0.447495
0.38837
0.45344
0.485938
0.464431
0.416375
0.375017
0.361818
0.374019
0.407465
0.453263
0.504194
0.555956
0.600923
0.632962
0.647514
0.640109
0.609207
0.569129
0.531437
0.493669
0.413177
0.471586
0.508617
0.501661
0.477282
0.458639
0.45432
0.462967
0.481878
0.507618
0.536816
0.566193
0.593816
0.617051
0.632283
0.63483
0.620071
0.585277
0.549928
0.522595
0.423799
0.481328
0.517588
0.527013
0.527709
0.52846
0.532189
0.539074
0.548548
0.559811
0.571801
0.583102
0.59349
0.602445
0.608924
0.610959
0.605222
0.587937
0.562133
0.539549
0.42626
0.455062
0.473884
0.48569
0.494021
0.500721
0.506662
0.512219
0.517538
0.52265
0.527562
0.532412
0.537173
0.541802
0.546223
0.550299
0.55377
0.556117
0.55619
0.550077
)
;

boundaryField
{
    movingWall
    {
        type            zeroGradient;
    }
    fixedWalls
    {
        type            zeroGradient;
    }
    frontAndBack
    {
        type            empty;
    }
}


// ************************************************************************* //
