/*--------------------------------*- C++ -*----------------------------------*\
  =========                 |
  \\      /  F ield         | OpenFOAM: The Open Source CFD Toolbox
   \\    /   O peration     | Website:  https://openfoam.org
    \\  /    A nd           | Version:  10
     \\/     M anipulation  |
\*---------------------------------------------------------------------------*/
FoamFile
{
    format      ascii;
    class       volScalarField;
    location    "1.6";
    object      p;
}
// * * * * * * * * * * * * * * * * * * * * * * * * * * * * * * * * * * * * * //

dimensions      [0 2 -2 0 0 0 0];

internalField   nonuniform List<scalar> 
400
(
2.73653e-06
-0.00582535
-0.0129634
-0.0184159
-0.0204336
-0.01824
-0.0117755
-0.00148533
0.0118358
0.0271477
0.0432431
0.058822
0.0725777
0.0833076
0.0900519
0.0922661
0.0900248
0.0842428
0.0768796
0.071066
0.00578075
-0.000218629
-0.0058047
-0.00954354
-0.0106001
-0.00843401
-0.00297132
0.00547268
0.0163014
0.0287102
0.0417484
0.0543847
0.0655854
0.074409
0.0801194
0.0823148
0.0810763
0.0770537
0.0712729
0.0653166
0.0133349
0.00503317
-0.000996068
-0.0044241
-0.00527409
-0.00326521
0.001601
0.00902619
0.0185006
0.0293478
0.040764
0.0518683
0.0617673
0.0696353
0.074806
0.0768771
0.0758406
0.0720848
0.0658042
0.0575341
0.0201391
0.00869543
0.00122512
-0.00266949
-0.00372327
-0.0018866
0.00272991
0.00978318
0.018779
0.0290936
0.0399906
0.0506526
0.0602316
0.0679147
0.073002
0.0750004
0.0737647
0.0694549
0.0616016
0.0501011
0.0245016
0.00977258
0.000589079
-0.0039878
-0.00530332
-0.0035086
0.00117336
0.00833315
0.0174606
0.0279477
0.0390836
0.0500685
0.0600475
0.0681637
0.0736251
0.0757965
0.0743677
0.0692885
0.0595242
0.0445356
0.0251774
0.00714946
-0.0038027
-0.00905801
-0.0105131
-0.00850114
-0.00335813
0.00442801
0.0143119
0.0256776
0.0378124
0.0499019
0.0610467
0.0703017
0.0767332
0.0795155
0.0781375
0.0723322
0.0605378
0.0418885
0.0210929
-0.000263034
-0.0129352
-0.0187101
-0.0200307
-0.017415
-0.0113196
-0.00232104
0.00898901
0.0219748
0.0359083
0.049943
0.0631108
0.0743439
0.0825205
0.0865681
0.0857193
0.0794457
0.0656189
0.0430702
0.0111421
-0.013619
-0.0278759
-0.0338551
-0.0346044
-0.0308584
-0.0232139
-0.0123464
0.0011035
0.0164825
0.0330511
0.0499323
0.066082
0.0802886
0.0911994
0.0974287
0.0978689
0.0916346
0.0758949
0.049115
-0.00596795
-0.0342674
-0.049871
-0.0555495
-0.055091
-0.0495155
-0.0395944
-0.0261144
-0.00975833
0.00882167
0.0288996
0.0495921
0.0697962
0.0881533
0.103046
0.1127
0.115549
0.11019
0.0928329
0.06141
-0.031858
-0.0638771
-0.0804179
-0.0850082
-0.0824211
-0.0740792
-0.0609818
-0.0440376
-0.0239526
-0.0013381
0.0231443
0.0486597
0.0740943
0.097971
0.118395
0.133125
0.139987
0.136817
0.118439
0.0819325
-0.0686683
-0.104604
-0.121345
-0.123591
-0.117517
-0.105128
-0.0877192
-0.0663264
-0.041638
-0.0141567
0.0156044
0.046952
0.0788546
0.109792
0.137623
0.159585
0.172726
0.173777
0.155519
0.11357
-0.119403
-0.159358
-0.174916
-0.172758
-0.161149
-0.14293
-0.11976
-0.0927779
-0.0625783
-0.0294485
0.00637218
0.0444725
0.0840541
0.123702
0.161135
0.193085
0.215667
0.224076
0.20805
0.160632
-0.188629
-0.232243
-0.243939
-0.233949
-0.213695
-0.187155
-0.156373
-0.122502
-0.0858986
-0.0464729
-0.00401515
0.0415381
0.0898414
0.139829
0.189318
0.234688
0.271074
0.291664
0.281742
0.229775
-0.283975
-0.329305
-0.331832
-0.30828
-0.274709
-0.23644
-0.195765
-0.15361
-0.10984
-0.0637456
-0.0144382
0.0388631
0.0965539
0.158276
0.222374
0.285287
0.341397
0.381575
0.384914
0.331834
-0.419319
-0.459671
-0.44235
-0.395792
-0.342129
-0.287739
-0.234616
-0.18293
-0.131609
-0.0789849
-0.0232139
0.0374754
0.104553
0.178838
0.259861
0.34497
0.428616
0.4997
0.529675
0.485392
-0.620531
-0.636743
-0.578677
-0.494192
-0.41124
-0.335657
-0.26778
-0.205977
-0.147536
-0.0893823
-0.0284254
0.0383489
0.113807
0.200472
0.299976
0.412026
0.53303
0.651776
0.732772
0.722396
-0.935923
-0.878514
-0.741741
-0.597947
-0.474392
-0.372658
-0.288867
-0.217761
-0.153952
-0.0924628
-0.0287163
0.0416967
0.123264
0.220719
0.338927
0.482156
0.651998
0.841343
1.01527
1.0975
-1.47642
-1.20663
-0.920502
-0.691386
-0.517303
-0.387542
-0.29006
-0.213336
-0.148122
-0.0872142
-0.0245764
0.0454587
0.128939
0.233072
0.367104
0.542679
0.771294
1.05932
1.40329
1.73014
-2.53965
-1.63055
-1.04444
-0.710957
-0.495749
-0.352092
-0.254529
-0.183582
-0.126168
-0.0735938
-0.0192678
0.0427881
0.119213
0.218784
0.354813
0.547985
0.826394
1.23658
1.91168
2.92419
-4.36666
-2.04463
-0.973541
-0.563179
-0.357845
-0.240145
-0.170118
-0.123782
-0.0874799
-0.053509
-0.0166533
0.0276618
0.0846086
0.161731
0.272412
0.4421
0.71822
1.22571
2.41104
4.84853
)
;

boundaryField
{
    movingWall
    {
        type            zeroGradient;
    }
    fixedWalls
    {
        type            zeroGradient;
    }
    frontAndBack
    {
        type            empty;
    }
}


// ************************************************************************* //
