/*--------------------------------*- C++ -*----------------------------------*\
  =========                 |
  \\      /  F ield         | OpenFOAM: The Open Source CFD Toolbox
   \\    /   O peration     | Website:  https://openfoam.org
    \\  /    A nd           | Version:  10
     \\/     M anipulation  |
\*---------------------------------------------------------------------------*/
FoamFile
{
    format      ascii;
    class       volScalarField;
    location    "1.6";
    object      psi;
}
// * * * * * * * * * * * * * * * * * * * * * * * * * * * * * * * * * * * * * //

dimensions      [0 0 0 0 0 0 0];

internalField   nonuniform List<scalar> 
400
(
0.0443406
0.0500727
0.0612432
0.0761681
0.0926271
0.108718
0.123291
0.135863
0.146358
0.154875
0.16153
0.165915
0.167247
0.165107
0.159163
0.149091
0.134781
0.117064
0.0990726
0.0872676
0.0509535
0.0588537
0.0739518
0.0937181
0.114851
0.134793
0.152227
0.166794
0.17865
0.188164
0.195766
0.201045
0.203059
0.201486
0.195991
0.186061
0.171149
0.151383
0.129482
0.113287
0.0629052
0.0740505
0.0949888
0.12143
0.148609
0.173408
0.194557
0.211927
0.225865
0.236823
0.245208
0.250764
0.253052
0.25207
0.247609
0.239069
0.225456
0.205841
0.181427
0.160593
0.0781309
0.0929508
0.120225
0.153202
0.1856
0.214018
0.237431
0.255992
0.27021
0.280596
0.287552
0.291434
0.292755
0.291854
0.288717
0.282882
0.273314
0.258427
0.237369
0.216049
0.0949861
0.113389
0.146501
0.184639
0.220146
0.249632
0.272515
0.289379
0.301102
0.308546
0.312475
0.313896
0.313831
0.312693
0.31058
0.307295
0.302205
0.293987
0.280824
0.264692
0.112325
0.133899
0.171756
0.213115
0.24928
0.277238
0.297127
0.310211
0.317976
0.321823
0.322948
0.322544
0.321475
0.320021
0.318307
0.316365
0.314064
0.310863
0.305446
0.297191
0.129419
0.153601
0.194875
0.237499
0.272247
0.296911
0.312624
0.321482
0.325588
0.326717
0.326184
0.324913
0.323327
0.321551
0.319705
0.317964
0.316534
0.315549
0.314729
0.313006
0.145837
0.172034
0.215407
0.257653
0.289614
0.310258
0.32184
0.327216
0.328855
0.328549
0.327391
0.325869
0.324026
0.321895
0.319613
0.317431
0.31572
0.314966
0.315638
0.317341
0.161353
0.18901
0.233315
0.273977
0.302487
0.319205
0.327423
0.330486
0.330886
0.330132
0.328931
0.327401
0.325348
0.32279
0.319903
0.317002
0.31454
0.313127
0.313556
0.316159
0.175881
0.204508
0.248777
0.287084
0.312041
0.325411
0.331271
0.333122
0.333191
0.33256
0.331553
0.330047
0.327721
0.324625
0.321004
0.317247
0.313873
0.311542
0.311108
0.313329
0.189428
0.218606
0.262074
0.29762
0.319289
0.330093
0.334565
0.336059
0.336381
0.336167
0.335424
0.333887
0.331171
0.327396
0.322907
0.318175
0.313806
0.310513
0.309112
0.31051
0.202075
0.231445
0.273514
0.306163
0.325018
0.334062
0.337955
0.339713
0.340666
0.341042
0.34058
0.338923
0.335669
0.331054
0.325546
0.319705
0.314243
0.309973
0.307659
0.308161
0.21395
0.243184
0.283377
0.313173
0.329767
0.337768
0.341706
0.34417
0.346045
0.34718
0.347029
0.345129
0.341162
0.335542
0.328876
0.321782
0.315096
0.309802
0.306646
0.306336
0.225201
0.253966
0.291871
0.318953
0.33381
0.341318
0.345698
0.349142
0.352193
0.354352
0.354623
0.352303
0.347451
0.340715
0.332834
0.324382
0.31632
0.309912
0.30595
0.304972
0.235938
0.263836
0.299051
0.323578
0.337105
0.344401
0.349264
0.353606
0.357876
0.361392
0.362486
0.359577
0.353861
0.346122
0.337218
0.327456
0.317898
0.310257
0.30547
0.303967
0.246082
0.272584
0.304688
0.326794
0.339245
0.346315
0.351246
0.35579
0.360507
0.364524
0.366832
0.364214
0.358551
0.350579
0.341418
0.330805
0.319803
0.310822
0.305136
0.303211
0.255101
0.279452
0.307995
0.327829
0.339618
0.346508
0.350885
0.354551
0.357804
0.360251
0.36134
0.36023
0.356912
0.351419
0.343818
0.333718
0.321869
0.311609
0.30491
0.302622
0.261711
0.28277
0.307535
0.326036
0.335424
0.341013
0.344583
0.347105
0.348886
0.349921
0.350086
0.349271
0.347341
0.34407
0.339155
0.33227
0.323317
0.312523
0.304763
0.302142
0.26387
0.2822
0.300494
0.312262
0.319015
0.323135
0.325735
0.327384
0.328355
0.328767
0.328686
0.328359
0.327728
0.326667
0.32495
0.322185
0.317804
0.311411
0.304618
0.301727
0.264208
0.272556
0.279201
0.283906
0.287233
0.289678
0.291557
0.293054
0.294272
0.295264
0.296096
0.296904
0.297687
0.29844
0.299152
0.299806
0.30037
0.300794
0.301061
0.301301
)
;

boundaryField
{
    movingWall
    {
        type            zeroGradient;
    }
    fixedWalls
    {
        type            zeroGradient;
    }
    frontAndBack
    {
        type            empty;
    }
}


// ************************************************************************* //
