/*--------------------------------*- C++ -*----------------------------------*\
  =========                 |
  \\      /  F ield         | OpenFOAM: The Open Source CFD Toolbox
   \\    /   O peration     | Website:  https://openfoam.org
    \\  /    A nd           | Version:  10
     \\/     M anipulation  |
\*---------------------------------------------------------------------------*/
FoamFile
{
    format      ascii;
    class       volScalarField;
    location    "1.8";
    object      p;
}
// * * * * * * * * * * * * * * * * * * * * * * * * * * * * * * * * * * * * * //

dimensions      [0 2 -2 0 0 0 0];

internalField   nonuniform List<scalar> 
400
(
2.51892e-06
-0.0058257
-0.0129639
-0.0184164
-0.0204341
-0.0182405
-0.0117759
-0.00148565
0.0118355
0.0271473
0.0432427
0.0588214
0.0725772
0.0833071
0.0900516
0.0922657
0.0900245
0.0842425
0.0768791
0.0710655
0.00578037
-0.000218998
-0.00580506
-0.00954393
-0.0106006
-0.0084345
-0.00297181
0.00547226
0.0163011
0.0287099
0.0417481
0.0543843
0.0655849
0.0744085
0.0801189
0.0823144
0.0810759
0.0770534
0.0712726
0.0653162
0.0133344
0.00503277
-0.000996417
-0.00442443
-0.00527446
-0.00326567
0.00160048
0.00902568
0.0185002
0.0293475
0.0407637
0.051868
0.0617669
0.0696348
0.0748055
0.0768766
0.0758401
0.0720844
0.0658039
0.0575338
0.0201386
0.00869498
0.00122473
-0.00266982
-0.00372358
-0.00188698
0.00272944
0.00978263
0.0187784
0.0290932
0.0399902
0.0506523
0.0602313
0.0679143
0.0730016
0.0749999
0.0737642
0.0694545
0.0616013
0.0501007
0.0245012
0.0097721
0.000588615
-0.00398818
-0.00530362
-0.00350889
0.00117299
0.00833266
0.01746
0.0279471
0.0390832
0.0500682
0.0600472
0.0681634
0.0736247
0.075796
0.0743672
0.069288
0.0595237
0.0445352
0.0251771
0.00714899
-0.00380322
-0.00905848
-0.0105135
-0.00850142
-0.00335841
0.00442764
0.0143114
0.025677
0.0378119
0.0499015
0.0610464
0.0703014
0.0767329
0.0795151
0.0781371
0.0723317
0.0605374
0.0418881
0.0210926
-0.000263444
-0.0129357
-0.0187106
-0.0200312
-0.0174153
-0.0113198
-0.00232131
0.00898864
0.0219743
0.0359077
0.0499425
0.0631103
0.0743435
0.0825202
0.0865677
0.0857189
0.0794452
0.0656185
0.0430697
0.0111418
-0.0136193
-0.0278763
-0.0338556
-0.0346049
-0.0308589
-0.0232143
-0.0123467
0.00110323
0.0164821
0.0330507
0.0499317
0.0660815
0.0802881
0.091199
0.0974283
0.0978685
0.0916343
0.0758944
0.0491146
-0.00596833
-0.0342677
-0.0498713
-0.05555
-0.0550916
-0.049516
-0.0395949
-0.0261147
-0.00975859
0.00882139
0.0288993
0.0495917
0.0697957
0.0881528
0.103046
0.112699
0.115549
0.11019
0.0928325
0.0614096
-0.0318585
-0.0638774
-0.0804182
-0.0850085
-0.0824215
-0.0740798
-0.0609824
-0.0440381
-0.0239529
-0.00133838
0.023144
0.0486593
0.0740939
0.0979705
0.118394
0.133124
0.139987
0.136816
0.118439
0.0819321
-0.0686688
-0.104605
-0.121346
-0.123591
-0.117517
-0.105128
-0.0877198
-0.066327
-0.0416385
-0.014157
0.0156041
0.0469517
0.0788542
0.109792
0.137622
0.159584
0.172725
0.173777
0.155519
0.113569
-0.119404
-0.159358
-0.174916
-0.172758
-0.161149
-0.14293
-0.11976
-0.0927784
-0.0625788
-0.029449
0.00637178
0.0444722
0.0840538
0.123702
0.161135
0.193085
0.215667
0.224076
0.208049
0.160631
-0.18863
-0.232243
-0.24394
-0.233949
-0.213695
-0.187155
-0.156373
-0.122502
-0.0858991
-0.0464734
-0.00401565
0.0415377
0.089841
0.139828
0.189318
0.234688
0.271073
0.291663
0.281742
0.229775
-0.283976
-0.329306
-0.331833
-0.308281
-0.274709
-0.23644
-0.195765
-0.153611
-0.109841
-0.063746
-0.0144388
0.0388626
0.0965535
0.158276
0.222373
0.285287
0.341396
0.381574
0.384913
0.331833
-0.419319
-0.459672
-0.442351
-0.395793
-0.342129
-0.28774
-0.234616
-0.18293
-0.13161
-0.0789853
-0.0232144
0.0374749
0.104553
0.178837
0.259861
0.34497
0.428616
0.4997
0.529675
0.485391
-0.620532
-0.636744
-0.578677
-0.494193
-0.41124
-0.335658
-0.26778
-0.205977
-0.147536
-0.0893827
-0.0284258
0.0383485
0.113807
0.200472
0.299975
0.412025
0.53303
0.651775
0.732772
0.722396
-0.935923
-0.878514
-0.741741
-0.597948
-0.474392
-0.372658
-0.288868
-0.217762
-0.153953
-0.0924632
-0.0287166
0.0416963
0.123264
0.220719
0.338926
0.482155
0.651997
0.841342
1.01527
1.0975
-1.47642
-1.20663
-0.920502
-0.691387
-0.517304
-0.387543
-0.29006
-0.213336
-0.148123
-0.0872146
-0.0245768
0.0454583
0.128938
0.233072
0.367104
0.542679
0.771294
1.05932
1.40329
1.73014
-2.53965
-1.63055
-1.04444
-0.710958
-0.495749
-0.352092
-0.25453
-0.183582
-0.126168
-0.0735942
-0.0192682
0.0427877
0.119213
0.218783
0.354813
0.547985
0.826394
1.23658
1.91168
2.92419
-4.36666
-2.04463
-0.973541
-0.563179
-0.357845
-0.240145
-0.170118
-0.123782
-0.0874803
-0.0535094
-0.0166537
0.0276614
0.0846081
0.16173
0.272412
0.4421
0.71822
1.22571
2.41104
4.84853
)
;

boundaryField
{
    movingWall
    {
        type            zeroGradient;
    }
    fixedWalls
    {
        type            zeroGradient;
    }
    frontAndBack
    {
        type            empty;
    }
}


// ************************************************************************* //
