/*--------------------------------*- C++ -*----------------------------------*\
  =========                 |
  \\      /  F ield         | OpenFOAM: The Open Source CFD Toolbox
   \\    /   O peration     | Website:  https://openfoam.org
    \\  /    A nd           | Version:  10
     \\/     M anipulation  |
\*---------------------------------------------------------------------------*/
FoamFile
{
    format      ascii;
    class       volScalarField;
    location    "1.8";
    object      psi;
}
// * * * * * * * * * * * * * * * * * * * * * * * * * * * * * * * * * * * * * //

dimensions      [0 0 0 0 0 0 0];

internalField   nonuniform List<scalar> 
400
(
0.0553136
0.0626742
0.0768736
0.0955201
0.115522
0.134314
0.150498
0.163682
0.174044
0.181954
0.187751
0.191279
0.192013
0.189664
0.183957
0.17457
0.161331
0.144902
0.12811
0.117022
0.0627709
0.0725827
0.0909023
0.1141
0.137858
0.159153
0.176748
0.190636
0.201344
0.209513
0.215737
0.219842
0.221165
0.219484
0.214516
0.205793
0.192776
0.175474
0.15616
0.141745
0.0759804
0.0891517
0.112998
0.141727
0.1697
0.193794
0.213219
0.228397
0.240084
0.248973
0.255589
0.259857
0.261505
0.260557
0.256839
0.249848
0.238732
0.222658
0.202495
0.185106
0.0923323
0.108924
0.138156
0.171675
0.20277
0.228545
0.248741
0.264113
0.275532
0.283679
0.28902
0.291932
0.292876
0.292129
0.289679
0.28517
0.277798
0.266312
0.249976
0.233277
0.109872
0.129476
0.163212
0.200046
0.232471
0.258016
0.276976
0.290466
0.29959
0.30525
0.30816
0.309164
0.309066
0.308172
0.306556
0.304085
0.300317
0.294308
0.284717
0.272892
0.127376
0.149413
0.186476
0.224939
0.256827
0.2803
0.296322
0.306512
0.312389
0.315223
0.316019
0.315698
0.314876
0.31374
0.312383
0.310852
0.3091
0.306808
0.303122
0.297549
0.144172
0.168043
0.207219
0.245759
0.275634
0.295882
0.308284
0.315055
0.31812
0.318965
0.318618
0.317724
0.316533
0.315122
0.313594
0.312105
0.310852
0.310004
0.309485
0.308613
0.159935
0.185092
0.225276
0.262668
0.289642
0.306326
0.315366
0.319482
0.320786
0.320687
0.319965
0.318908
0.317492
0.315755
0.313824
0.311917
0.310342
0.3095
0.309821
0.311168
0.174541
0.200514
0.24078
0.276187
0.299929
0.313323
0.31976
0.322227
0.322744
0.322414
0.321684
0.320577
0.318932
0.316796
0.314339
0.311829
0.309633
0.308223
0.308213
0.309961
0.187992
0.214388
0.254007
0.286945
0.307543
0.318247
0.322955
0.324643
0.325025
0.324827
0.324204
0.323033
0.321093
0.31847
0.315391
0.312185
0.30927
0.307157
0.306469
0.307784
0.200361
0.226859
0.265275
0.295546
0.313346
0.322064
0.325821
0.327362
0.327999
0.3281
0.327606
0.326322
0.324
0.320784
0.316981
0.312985
0.309288
0.306453
0.305079
0.305769
0.21177
0.238102
0.274901
0.302506
0.317976
0.325381
0.328807
0.330637
0.331778
0.33229
0.331936
0.330477
0.327665
0.323737
0.319092
0.314194
0.309625
0.306045
0.304039
0.304167
0.222372
0.248297
0.283156
0.308217
0.321851
0.328511
0.332062
0.334491
0.336345
0.337406
0.337229
0.33551
0.332078
0.327314
0.321722
0.315806
0.310247
0.305858
0.303247
0.302912
0.232327
0.257595
0.290236
0.312925
0.325161
0.331484
0.335431
0.338648
0.341423
0.343266
0.343377
0.341263
0.337089
0.331415
0.324842
0.317824
0.311145
0.305855
0.302624
0.301889
0.24175
0.266055
0.296199
0.316684
0.327835
0.333994
0.338311
0.34222
0.345952
0.348878
0.349634
0.347014
0.342141
0.335674
0.328291
0.320222
0.312326
0.306024
0.302123
0.301021
0.250593
0.273519
0.300865
0.319275
0.329518
0.335439
0.339723
0.343712
0.347752
0.351047
0.352808
0.35049
0.345718
0.339113
0.33157
0.322839
0.313775
0.306373
0.301725
0.300277
0.258415
0.279366
0.303594
0.320077
0.329732
0.335428
0.339135
0.342263
0.344994
0.346977
0.347787
0.346814
0.344062
0.339559
0.333348
0.325084
0.315354
0.306908
0.301417
0.299645
0.264142
0.282203
0.3032
0.318556
0.32623
0.330802
0.333745
0.335832
0.337298
0.338131
0.338241
0.337561
0.335985
0.333328
0.329338
0.323734
0.316415
0.307549
0.30118
0.299114
0.266046
0.28175
0.297257
0.30707
0.312646
0.316032
0.318166
0.319519
0.320315
0.320652
0.320586
0.320322
0.319811
0.318954
0.317563
0.315317
0.311743
0.306509
0.300945
0.298658
0.266387
0.273543
0.279206
0.283191
0.286
0.288063
0.289649
0.290914
0.291946
0.292791
0.293502
0.294195
0.294868
0.295517
0.296135
0.296709
0.297211
0.297607
0.297889
0.298196
)
;

boundaryField
{
    movingWall
    {
        type            zeroGradient;
    }
    fixedWalls
    {
        type            zeroGradient;
    }
    frontAndBack
    {
        type            empty;
    }
}


// ************************************************************************* //
