/*--------------------------------*- C++ -*----------------------------------*\
  =========                 |
  \\      /  F ield         | OpenFOAM: The Open Source CFD Toolbox
   \\    /   O peration     | Website:  https://openfoam.org
    \\  /    A nd           | Version:  10
     \\/     M anipulation  |
\*---------------------------------------------------------------------------*/
FoamFile
{
    format      ascii;
    class       volScalarField;
    location    "1.9";
    object      p;
}
// * * * * * * * * * * * * * * * * * * * * * * * * * * * * * * * * * * * * * //

dimensions      [0 2 -2 0 0 0 0];

internalField   nonuniform List<scalar> 
400
(
2.41966e-06
-0.00582587
-0.012964
-0.0184165
-0.0204342
-0.0182406
-0.0117761
-0.00148593
0.0118352
0.0271472
0.0432426
0.0588214
0.0725771
0.0833069
0.0900513
0.0922654
0.0900243
0.0842423
0.076879
0.0710655
0.0057802
-0.000219205
-0.00580526
-0.0095441
-0.0106007
-0.00843463
-0.00297197
0.00547202
0.0163008
0.0287097
0.0417479
0.0543842
0.0655848
0.0744084
0.0801187
0.0823142
0.0810756
0.0770531
0.0712724
0.0653161
0.0133343
0.00503256
-0.000996658
-0.00442465
-0.00527463
-0.00326577
0.00160038
0.00902552
0.0185
0.0293472
0.0407634
0.0518678
0.0617668
0.0696347
0.0748054
0.0768764
0.0758399
0.0720841
0.0658036
0.0575336
0.0201385
0.00869481
0.00122449
-0.00267008
-0.00372382
-0.00188713
0.00272936
0.00978256
0.0187783
0.0290929
0.0399899
0.0506521
0.0602311
0.0679142
0.0730015
0.0749998
0.073764
0.0694542
0.061601
0.0501005
0.0245011
0.00977197
0.000588427
-0.00398844
-0.00530391
-0.00350913
0.00117285
0.00833259
0.0174599
0.027947
0.0390829
0.0500679
0.0600469
0.0681632
0.0736245
0.0757959
0.0743671
0.0692878
0.0595235
0.044535
0.0251769
0.00714888
-0.00380334
-0.00905868
-0.0105138
-0.00850173
-0.00335866
0.00442751
0.0143114
0.025677
0.0378117
0.0499012
0.0610461
0.0703011
0.0767327
0.079515
0.078137
0.0723316
0.0605372
0.0418878
0.0210924
-0.000263582
-0.0129358
-0.0187108
-0.0200314
-0.0174156
-0.0113202
-0.00232155
0.00898852
0.0219742
0.0359076
0.0499423
0.0631101
0.0743432
0.0825199
0.0865675
0.0857187
0.0794451
0.0656183
0.0430696
0.0111415
-0.0136195
-0.0278764
-0.0338557
-0.034605
-0.0308591
-0.0232146
-0.012347
0.00110299
0.016482
0.0330506
0.0499317
0.0660814
0.0802879
0.0911987
0.097428
0.0978683
0.0916341
0.0758943
0.0491144
-0.0059686
-0.0342679
-0.0498715
-0.0555501
-0.0550916
-0.0495161
-0.0395952
-0.0261151
-0.00975892
0.00882115
0.0288991
0.0495916
0.0697956
0.0881526
0.103046
0.112699
0.115549
0.11019
0.0928323
0.0614095
-0.0318587
-0.0638777
-0.0804185
-0.0850087
-0.0824216
-0.0740798
-0.0609825
-0.0440383
-0.0239533
-0.0013387
0.0231438
0.0486592
0.0740938
0.0979704
0.118394
0.133124
0.139987
0.136816
0.118439
0.081932
-0.0686689
-0.104605
-0.121346
-0.123592
-0.117517
-0.105128
-0.0877198
-0.0663271
-0.0416387
-0.0141573
0.0156038
0.0469514
0.078854
0.109792
0.137622
0.159584
0.172725
0.173776
0.155519
0.113569
-0.119404
-0.159359
-0.174916
-0.172759
-0.161149
-0.14293
-0.11976
-0.0927785
-0.0625789
-0.0294492
0.00637151
0.0444719
0.0840535
0.123701
0.161135
0.193084
0.215667
0.224075
0.208049
0.160631
-0.18863
-0.232243
-0.24394
-0.233949
-0.213696
-0.187156
-0.156374
-0.122502
-0.0858992
-0.0464735
-0.00401582
0.0415374
0.0898407
0.139828
0.189318
0.234688
0.271073
0.291663
0.281741
0.229774
-0.283976
-0.329306
-0.331833
-0.308281
-0.27471
-0.236441
-0.195765
-0.153611
-0.109841
-0.0637461
-0.0144389
0.0388624
0.0965533
0.158276
0.222373
0.285287
0.341396
0.381574
0.384913
0.331833
-0.419319
-0.459672
-0.442351
-0.395793
-0.34213
-0.28774
-0.234616
-0.18293
-0.13161
-0.0789854
-0.0232145
0.0374748
0.104553
0.178837
0.259861
0.34497
0.428616
0.499699
0.529674
0.485391
-0.620532
-0.636744
-0.578677
-0.494193
-0.41124
-0.335658
-0.26778
-0.205977
-0.147536
-0.0893829
-0.028426
0.0383483
0.113807
0.200472
0.299975
0.412025
0.533029
0.651775
0.732772
0.722396
-0.935924
-0.878515
-0.741741
-0.597948
-0.474392
-0.372659
-0.288868
-0.217762
-0.153953
-0.0924634
-0.0287169
0.0416961
0.123264
0.220719
0.338926
0.482155
0.651997
0.841342
1.01527
1.0975
-1.47642
-1.20663
-0.920502
-0.691387
-0.517304
-0.387543
-0.29006
-0.213336
-0.148123
-0.0872148
-0.024577
0.0454581
0.128938
0.233072
0.367104
0.542679
0.771294
1.05932
1.40329
1.73014
-2.53965
-1.63055
-1.04444
-0.710958
-0.49575
-0.352092
-0.25453
-0.183582
-0.126168
-0.0735944
-0.0192684
0.0427875
0.119213
0.218783
0.354813
0.547984
0.826393
1.23658
1.91168
2.92419
-4.36666
-2.04463
-0.973541
-0.56318
-0.357845
-0.240146
-0.170118
-0.123782
-0.0874805
-0.0535096
-0.0166538
0.0276612
0.084608
0.16173
0.272412
0.442099
0.718219
1.22571
2.41104
4.84853
)
;

boundaryField
{
    movingWall
    {
        type            zeroGradient;
    }
    fixedWalls
    {
        type            zeroGradient;
    }
    frontAndBack
    {
        type            empty;
    }
}


// ************************************************************************* //
