/*--------------------------------*- C++ -*----------------------------------*\
  =========                 |
  \\      /  F ield         | OpenFOAM: The Open Source CFD Toolbox
   \\    /   O peration     | Website:  https://openfoam.org
    \\  /    A nd           | Version:  10
     \\/     M anipulation  |
\*---------------------------------------------------------------------------*/
FoamFile
{
    format      ascii;
    class       volScalarField;
    location    "1.9";
    object      psi;
}
// * * * * * * * * * * * * * * * * * * * * * * * * * * * * * * * * * * * * * //

dimensions      [0 0 0 0 0 0 0];

internalField   nonuniform List<scalar> 
400
(
0.0615295
0.0696796
0.0852751
0.105501
0.126834
0.146462
0.16296
0.176054
0.18607
0.193511
0.198809
0.201906
0.202381
0.199995
0.194498
0.185575
0.173044
0.157496
0.14158
0.131053
0.0693438
0.0799887
0.0996471
0.124141
0.148719
0.170229
0.18755
0.20087
0.21089
0.218362
0.223932
0.227514
0.228552
0.226859
0.222176
0.214058
0.201988
0.185944
0.167996
0.154566
0.0830375
0.0969621
0.121827
0.15121
0.17916
0.202621
0.221056
0.23513
0.245762
0.253729
0.259591
0.263329
0.264725
0.263803
0.260403
0.254061
0.243998
0.229438
0.211137
0.195303
0.0997481
0.11686
0.146562
0.179925
0.210131
0.234539
0.253223
0.267179
0.277407
0.284639
0.289352
0.291909
0.292726
0.292046
0.289857
0.285845
0.279298
0.269105
0.254597
0.23973
0.117409
0.137204
0.170771
0.206672
0.237529
0.261268
0.278533
0.290635
0.298743
0.303749
0.306319
0.307208
0.307117
0.306316
0.304874
0.302681
0.299364
0.294108
0.285755
0.27546
0.134797
0.156666
0.192943
0.22985
0.259763
0.281312
0.29577
0.304863
0.310081
0.312602
0.313323
0.313046
0.312305
0.311271
0.310033
0.308645
0.307075
0.305064
0.301898
0.297162
0.151285
0.174647
0.212508
0.249066
0.276817
0.295272
0.306423
0.312475
0.315227
0.316008
0.315717
0.314913
0.313819
0.312515
0.311103
0.309729
0.308572
0.307788
0.307329
0.30663
0.166603
0.190953
0.229408
0.264579
0.289476
0.304633
0.312775
0.316491
0.3177
0.31764
0.316988
0.316003
0.31468
0.313065
0.311281
0.309528
0.308082
0.307293
0.307536
0.308694
0.18068
0.205595
0.243837
0.276938
0.298769
0.310936
0.316767
0.319034
0.319536
0.31924
0.318542
0.317479
0.31593
0.313946
0.311686
0.309393
0.307397
0.30612
0.30609
0.307585
0.19355
0.218692
0.256095
0.286755
0.30566
0.315404
0.319702
0.321271
0.321626
0.321409
0.320773
0.319634
0.31781
0.315384
0.312561
0.309641
0.307002
0.305111
0.304518
0.305687
0.205316
0.230409
0.266508
0.294601
0.310929
0.318889
0.322339
0.323758
0.324308
0.324329
0.323791
0.322543
0.320372
0.317409
0.313929
0.310291
0.306942
0.304402
0.303221
0.303917
0.216113
0.240932
0.275386
0.300951
0.315146
0.321926
0.325074
0.326731
0.327708
0.328079
0.327661
0.326257
0.323644
0.320035
0.31579
0.311328
0.30718
0.303955
0.302206
0.302452
0.226103
0.250446
0.28299
0.306165
0.318683
0.324793
0.328046
0.330227
0.331833
0.332693
0.332434
0.330797
0.327624
0.323255
0.318146
0.31275
0.307692
0.303718
0.301403
0.301238
0.235448
0.2591
0.289503
0.310467
0.321708
0.327515
0.331123
0.334014
0.336452
0.338021
0.338025
0.336029
0.332178
0.326977
0.320969
0.314563
0.308474
0.303665
0.300762
0.300205
0.244265
0.266958
0.294985
0.313899
0.32415
0.329812
0.333763
0.337292
0.340615
0.343178
0.343768
0.341303
0.336804
0.330869
0.324114
0.316739
0.30953
0.303785
0.300251
0.299319
0.252516
0.273879
0.299268
0.316257
0.325678
0.331125
0.335058
0.338683
0.342313
0.345242
0.346762
0.344554
0.340123
0.334041
0.327123
0.319131
0.310844
0.304084
0.299851
0.29857
0.259799
0.279292
0.301762
0.316966
0.325842
0.331082
0.334486
0.337335
0.339798
0.341561
0.342242
0.34128
0.338691
0.334511
0.328785
0.321199
0.312289
0.304563
0.299548
0.297949
0.265126
0.281912
0.301374
0.31553
0.322579
0.326776
0.32947
0.331371
0.33269
0.333422
0.333486
0.332821
0.331332
0.328853
0.325158
0.319994
0.313271
0.305146
0.299319
0.29744
0.266897
0.281484
0.295849
0.304899
0.310025
0.313131
0.315083
0.316313
0.317029
0.317321
0.317242
0.31698
0.316491
0.315683
0.314386
0.312305
0.30901
0.3042
0.299099
0.29701
0.267218
0.273864
0.279112
0.282798
0.285392
0.287294
0.288755
0.289919
0.290867
0.291643
0.292294
0.292928
0.293544
0.294138
0.294702
0.295225
0.295683
0.296043
0.296299
0.296582
)
;

boundaryField
{
    movingWall
    {
        type            zeroGradient;
    }
    fixedWalls
    {
        type            zeroGradient;
    }
    frontAndBack
    {
        type            empty;
    }
}


// ************************************************************************* //
