/*--------------------------------*- C++ -*----------------------------------*\
  =========                 |
  \\      /  F ield         | OpenFOAM: The Open Source CFD Toolbox
   \\    /   O peration     | Website:  https://openfoam.org
    \\  /    A nd           | Version:  10
     \\/     M anipulation  |
\*---------------------------------------------------------------------------*/
FoamFile
{
    format      ascii;
    class       volScalarField;
    location    "1";
    object      p;
}
// * * * * * * * * * * * * * * * * * * * * * * * * * * * * * * * * * * * * * //

dimensions      [0 2 -2 0 0 0 0];

internalField   nonuniform List<scalar> 
400
(
3.53702e-06
-0.00582398
-0.012962
-0.0184145
-0.0204321
-0.0182385
-0.011774
-0.00148372
0.0118374
0.0271493
0.0432446
0.0588234
0.0725791
0.0833091
0.0900535
0.0922677
0.0900264
0.0842444
0.0768811
0.0710675
0.0057821
-0.00021716
-0.00580318
-0.00954203
-0.0105987
-0.00843258
-0.00296988
0.00547418
0.016303
0.0287118
0.04175
0.0543863
0.0655868
0.0744104
0.0801208
0.0823163
0.0810778
0.0770553
0.0712745
0.0653181
0.0133363
0.00503465
-0.000994534
-0.00442253
-0.00527255
-0.00326374
0.00160241
0.0090276
0.0185021
0.0293494
0.0407656
0.0518699
0.0617688
0.0696367
0.0748074
0.0768785
0.0758421
0.0720863
0.0658058
0.0575357
0.0201406
0.00869688
0.00122662
-0.00266792
-0.00372167
-0.00188505
0.00273137
0.00978457
0.0187804
0.0290951
0.0399921
0.0506543
0.0602332
0.0679163
0.0730035
0.0750018
0.0737661
0.0694564
0.0616032
0.0501026
0.0245031
0.00977402
0.000590522
-0.00398628
-0.00530172
-0.00350698
0.00117492
0.00833459
0.0174619
0.0279491
0.0390851
0.0500701
0.0600491
0.0681653
0.0736266
0.0757979
0.0743692
0.0692899
0.0595257
0.0445371
0.025179
0.00715092
-0.00380129
-0.00905657
-0.0105116
-0.00849951
-0.00335649
0.00442958
0.0143134
0.025679
0.0378138
0.0499034
0.0610483
0.0703034
0.0767348
0.079517
0.078139
0.0723336
0.0605393
0.04189
0.0210945
-0.000261507
-0.0129338
-0.0187087
-0.0200293
-0.0174134
-0.0113179
-0.00231939
0.00899058
0.0219762
0.0359096
0.0499444
0.0631123
0.0743455
0.0825221
0.0865697
0.0857208
0.0794472
0.0656204
0.0430717
0.0111437
-0.0136174
-0.0278744
-0.0338537
-0.034603
-0.030857
-0.0232124
-0.0123448
0.00110516
0.0164841
0.0330526
0.0499337
0.0660834
0.08029
0.0912009
0.0974302
0.0978705
0.0916362
0.0758964
0.0491165
-0.00596641
-0.0342657
-0.0498694
-0.055548
-0.0550896
-0.0495141
-0.039593
-0.0261128
-0.00975668
0.00882332
0.0289012
0.0495936
0.0697976
0.0881547
0.103048
0.112701
0.115551
0.110192
0.0928344
0.0614115
-0.0318566
-0.0638755
-0.0804163
-0.0850066
-0.0824196
-0.0740779
-0.0609804
-0.0440361
-0.023951
-0.00133647
0.0231459
0.0486613
0.0740958
0.0979725
0.118396
0.133126
0.139989
0.136818
0.118441
0.0819341
-0.0686669
-0.104603
-0.121344
-0.123589
-0.117515
-0.105126
-0.0877178
-0.0663251
-0.0416365
-0.0141551
0.015606
0.0469536
0.0788561
0.109794
0.137624
0.159586
0.172727
0.173779
0.155521
0.113571
-0.119402
-0.159356
-0.174914
-0.172756
-0.161147
-0.142928
-0.119758
-0.0927765
-0.0625769
-0.0294471
0.0063737
0.0444741
0.0840557
0.123704
0.161137
0.193087
0.215669
0.224078
0.208051
0.160633
-0.188628
-0.232241
-0.243938
-0.233947
-0.213693
-0.187153
-0.156372
-0.1225
-0.0858972
-0.0464715
-0.00401372
0.0415396
0.0898429
0.13983
0.18932
0.23469
0.271075
0.291665
0.281744
0.229777
-0.283974
-0.329304
-0.331831
-0.308279
-0.274707
-0.236438
-0.195763
-0.153609
-0.109839
-0.0637441
-0.0144368
0.0388645
0.0965554
0.158278
0.222375
0.285289
0.341398
0.381576
0.384915
0.331835
-0.419317
-0.45967
-0.442349
-0.395791
-0.342127
-0.287738
-0.234614
-0.182928
-0.131608
-0.0789833
-0.0232124
0.0374769
0.104555
0.178839
0.259863
0.344972
0.428618
0.499702
0.529677
0.485393
-0.62053
-0.636742
-0.578675
-0.494191
-0.411238
-0.335656
-0.267778
-0.205975
-0.147534
-0.0893808
-0.0284239
0.0383504
0.113809
0.200474
0.299977
0.412027
0.533032
0.651777
0.732774
0.722398
-0.935921
-0.878512
-0.741739
-0.597946
-0.47439
-0.372657
-0.288866
-0.21776
-0.153951
-0.0924613
-0.0287147
0.0416982
0.123266
0.220721
0.338928
0.482157
0.651999
0.841344
1.01527
1.09751
-1.47642
-1.20663
-0.9205
-0.691385
-0.517302
-0.387541
-0.290058
-0.213334
-0.148121
-0.0872127
-0.0245749
0.0454602
0.12894
0.233074
0.367106
0.542681
0.771296
1.05932
1.40329
1.73014
-2.53965
-1.63054
-1.04443
-0.710956
-0.495747
-0.35209
-0.254528
-0.18358
-0.126166
-0.0735923
-0.0192663
0.0427896
0.119215
0.218785
0.354815
0.547986
0.826396
1.23658
1.91168
2.9242
-4.36666
-2.04463
-0.973539
-0.563178
-0.357843
-0.240143
-0.170116
-0.12378
-0.0874784
-0.0535075
-0.0166518
0.0276633
0.0846101
0.161732
0.272414
0.442102
0.718222
1.22571
2.41104
4.84853
)
;

boundaryField
{
    movingWall
    {
        type            zeroGradient;
    }
    fixedWalls
    {
        type            zeroGradient;
    }
    frontAndBack
    {
        type            empty;
    }
}


// ************************************************************************* //
