/*--------------------------------*- C++ -*----------------------------------*\
  =========                 |
  \\      /  F ield         | OpenFOAM: The Open Source CFD Toolbox
   \\    /   O peration     | Website:  https://openfoam.org
    \\  /    A nd           | Version:  10
     \\/     M anipulation  |
\*---------------------------------------------------------------------------*/
FoamFile
{
    format      ascii;
    class       volScalarField;
    location    "1";
    object      psi;
}
// * * * * * * * * * * * * * * * * * * * * * * * * * * * * * * * * * * * * * //

dimensions      [0 0 0 0 0 0 0];

internalField   nonuniform List<scalar> 
400
(
0.0192173
0.0233796
0.0304976
0.0381653
0.0444314
0.0486259
0.0511551
0.052824
0.0543344
0.0561071
0.0582793
0.0603005
0.0609947
0.0595209
0.0553435
0.0482838
0.0387094
0.0278588
0.0180659
0.0123127
0.025429
0.0303883
0.0384441
0.0468184
0.0538632
0.0596254
0.0649704
0.0706762
0.0771101
0.0843151
0.0922164
0.0994613
0.103663
0.10359
0.098516
0.0880842
0.0725466
0.0534823
0.0348555
0.0229148
0.0365401
0.0420786
0.0511916
0.0612965
0.0717254
0.083299
0.0967901
0.112204
0.128903
0.145977
0.162542
0.176077
0.183576
0.184146
0.177294
0.162427
0.139019
0.107792
0.073635
0.0488593
0.0505391
0.056301
0.0671389
0.0814932
0.0995984
0.122099
0.148471
0.176941
0.205159
0.230807
0.251945
0.26627
0.272728
0.271892
0.263912
0.247924
0.221981
0.18399
0.135979
0.0946675
0.0659905
0.0720209
0.0861738
0.107996
0.13745
0.173369
0.212636
0.251098
0.284814
0.310865
0.327663
0.335576
0.33707
0.333975
0.326804
0.31457
0.294465
0.261653
0.212143
0.159276
0.0820621
0.0889053
0.108292
0.139933
0.18164
0.22885
0.27532
0.31515
0.344422
0.361799
0.368251
0.367542
0.364109
0.359689
0.354613
0.348143
0.338042
0.319295
0.283552
0.233076
0.0983185
0.106786
0.132903
0.174863
0.226518
0.279265
0.3246
0.356882
0.374579
0.379795
0.376691
0.370518
0.36486
0.360392
0.357091
0.354737
0.352593
0.34803
0.333576
0.300919
0.114523
0.125417
0.158908
0.209815
0.267048
0.318694
0.356071
0.376166
0.381361
0.377157
0.369349
0.362108
0.356659
0.352643
0.349867
0.348617
0.349541
0.352963
0.356246
0.34885
0.130525
0.144457
0.185057
0.242302
0.300342
0.345795
0.372138
0.38046
0.376858
0.368514
0.360616
0.35497
0.350663
0.346848
0.343398
0.340949
0.340888
0.345405
0.356735
0.370285
0.146215
0.163535
0.210262
0.270802
0.325768
0.362512
0.378292
0.378313
0.37088
0.362811
0.357287
0.353902
0.35055
0.346375
0.341482
0.336736
0.333741
0.335189
0.345655
0.368296
0.161521
0.182322
0.233755
0.294769
0.344258
0.372144
0.379917
0.375793
0.368481
0.363093
0.360561
0.359048
0.356028
0.350903
0.344111
0.33673
0.330396
0.327562
0.332648
0.352863
0.176413
0.20058
0.255117
0.314378
0.357474
0.377909
0.380841
0.375979
0.371106
0.369233
0.369439
0.369136
0.365787
0.359171
0.350135
0.340007
0.330512
0.323799
0.32303
0.334951
0.190921
0.21817
0.274197
0.33021
0.367157
0.382258
0.383168
0.37977
0.378359
0.380074
0.382621
0.382947
0.378688
0.370099
0.358507
0.345485
0.332978
0.323128
0.317937
0.321518
0.205122
0.23501
0.290985
0.342941
0.374736
0.386681
0.387588
0.386683
0.388904
0.394108
0.398846
0.399338
0.393729
0.38284
0.368518
0.352435
0.336856
0.324324
0.316257
0.314312
0.219085
0.250939
0.305394
0.353036
0.381058
0.391722
0.393692
0.395127
0.400251
0.408658
0.415909
0.416222
0.40926
0.39623
0.379492
0.360422
0.341609
0.326472
0.316433
0.311816
0.23265
0.265419
0.316891
0.360313
0.386065
0.396965
0.400369
0.403049
0.409136
0.418276
0.427353
0.428131
0.421353
0.407698
0.390091
0.368931
0.346968
0.32911
0.317353
0.311758
0.244981
0.276949
0.32379
0.363145
0.388284
0.400343
0.405246
0.408989
0.41379
0.419438
0.424166
0.424909
0.420855
0.411525
0.396908
0.376512
0.352569
0.332084
0.318463
0.312501
0.254066
0.282486
0.323175
0.360086
0.380503
0.391758
0.398007
0.402146
0.405378
0.407868
0.40914
0.408379
0.405212
0.399072
0.389273
0.3752
0.35692
0.335224
0.319575
0.313267
0.257027
0.281694
0.311599
0.334137
0.348022
0.356618
0.36201
0.365434
0.367522
0.368544
0.368606
0.368158
0.367065
0.365063
0.361677
0.356114
0.34725
0.334358
0.320611
0.313835
0.257505
0.268665
0.278778
0.286554
0.292278
0.296564
0.299878
0.302517
0.304653
0.306376
0.307795
0.309166
0.310478
0.311718
0.312858
0.313853
0.31462
0.31503
0.314943
0.314244
)
;

boundaryField
{
    movingWall
    {
        type            zeroGradient;
    }
    fixedWalls
    {
        type            zeroGradient;
    }
    frontAndBack
    {
        type            empty;
    }
}


// ************************************************************************* //
