/*--------------------------------*- C++ -*----------------------------------*\
  =========                 |
  \\      /  F ield         | OpenFOAM: The Open Source CFD Toolbox
   \\    /   O peration     | Website:  https://openfoam.org
    \\  /    A nd           | Version:  10
     \\/     M anipulation  |
\*---------------------------------------------------------------------------*/
FoamFile
{
    format      ascii;
    class       volScalarField;
    location    "0.6";
    object      p;
}
// * * * * * * * * * * * * * * * * * * * * * * * * * * * * * * * * * * * * * //

dimensions      [0 2 -2 0 0 0 0];

internalField   nonuniform List<scalar> 
400
(
4.19964e-06
-0.00582283
-0.0129607
-0.0184131
-0.0204307
-0.0182371
-0.0117725
-0.00148238
0.0118387
0.0271505
0.0432459
0.0588246
0.0725803
0.0833102
0.0900546
0.0922687
0.0900275
0.0842455
0.0768823
0.0710688
0.00578319
-0.000215969
-0.00580194
-0.00954074
-0.0105973
-0.00843118
-0.00296848
0.00547554
0.0163043
0.0287131
0.0417512
0.0543875
0.065588
0.0744116
0.080122
0.0823175
0.081079
0.0770565
0.0712757
0.0653194
0.0133375
0.00503585
-0.000993319
-0.0044213
-0.00527128
-0.00326242
0.00160378
0.00902898
0.0185034
0.0293507
0.0407668
0.0518711
0.06177
0.069638
0.0748087
0.0768798
0.0758433
0.0720876
0.0658071
0.057537
0.0201417
0.00869808
0.00122785
-0.0026667
-0.00372046
-0.0018838
0.00273268
0.00978593
0.0187817
0.0290964
0.0399934
0.0506555
0.0602344
0.0679175
0.0730048
0.0750031
0.0737675
0.0694577
0.0616045
0.050104
0.0245042
0.00977521
0.000591772
-0.00398503
-0.00530049
-0.00350577
0.00117616
0.0083359
0.0174633
0.0279504
0.0390864
0.0500714
0.0600503
0.0681665
0.0736278
0.0757992
0.0743705
0.0692913
0.0595271
0.0445385
0.02518
0.0071521
-0.00380003
-0.00905528
-0.0105103
-0.00849828
-0.00335528
0.00443082
0.0143147
0.0256804
0.0378152
0.0499047
0.0610496
0.0703046
0.0767361
0.0795183
0.0781404
0.072335
0.0605407
0.0418915
0.0210956
-0.000260346
-0.0129326
-0.0187074
-0.0200279
-0.0174121
-0.0113167
-0.00231816
0.00899185
0.0219776
0.035911
0.0499458
0.0631136
0.0743468
0.0825233
0.0865709
0.0857221
0.0794485
0.0656218
0.0430732
0.0111449
-0.0136162
-0.0278731
-0.0338523
-0.0346016
-0.0308556
-0.023211
-0.0123435
0.00110642
0.0164853
0.033054
0.0499351
0.0660849
0.0802914
0.0912023
0.0974315
0.0978718
0.0916375
0.0758978
0.049118
-0.00596515
-0.0342645
-0.0498682
-0.0555467
-0.0550883
-0.0495127
-0.0395916
-0.0261115
-0.00975536
0.00882461
0.0289025
0.049595
0.069799
0.0881561
0.103049
0.112703
0.115552
0.110193
0.0928358
0.061413
-0.0318552
-0.0638742
-0.080415
-0.0850053
-0.0824183
-0.0740764
-0.060979
-0.0440347
-0.0239496
-0.0013351
0.0231473
0.0486626
0.0740972
0.0979739
0.118398
0.133127
0.13999
0.13682
0.118442
0.0819354
-0.0686654
-0.104601
-0.121343
-0.123588
-0.117514
-0.105125
-0.0877164
-0.0663235
-0.041635
-0.0141537
0.0156075
0.046955
0.0788575
0.109795
0.137626
0.159587
0.172729
0.17378
0.155522
0.113573
-0.1194
-0.159355
-0.174913
-0.172755
-0.161146
-0.142927
-0.119757
-0.092775
-0.0625754
-0.0294456
0.0063752
0.0444755
0.0840571
0.123705
0.161138
0.193088
0.21567
0.224079
0.208052
0.160634
-0.188626
-0.23224
-0.243936
-0.233946
-0.213692
-0.187152
-0.15637
-0.122499
-0.0858957
-0.0464699
-0.00401218
0.0415411
0.0898444
0.139831
0.189321
0.234691
0.271077
0.291666
0.281745
0.229778
-0.283972
-0.329302
-0.331829
-0.308277
-0.274706
-0.236437
-0.195762
-0.153607
-0.109838
-0.0637426
-0.0144353
0.038866
0.0965569
0.158279
0.222377
0.28529
0.3414
0.381577
0.384916
0.331836
-0.419316
-0.459668
-0.442348
-0.395789
-0.342126
-0.287736
-0.234613
-0.182927
-0.131606
-0.0789819
-0.023211
0.0374783
0.104556
0.178841
0.259864
0.344973
0.428619
0.499703
0.529678
0.485394
-0.620528
-0.63674
-0.578674
-0.49419
-0.411237
-0.335655
-0.267777
-0.205974
-0.147533
-0.0893794
-0.0284225
0.0383518
0.11381
0.200475
0.299979
0.412029
0.533033
0.651778
0.732775
0.722399
-0.93592
-0.878511
-0.741738
-0.597945
-0.474389
-0.372655
-0.288864
-0.217759
-0.153949
-0.0924599
-0.0287133
0.0416996
0.123267
0.220722
0.33893
0.482158
0.652
0.841345
1.01527
1.09751
-1.47642
-1.20663
-0.920499
-0.691384
-0.517301
-0.38754
-0.290057
-0.213333
-0.14812
-0.0872113
-0.0245735
0.0454616
0.128941
0.233075
0.367107
0.542682
0.771297
1.05932
1.40329
1.73015
-2.53964
-1.63054
-1.04443
-0.710954
-0.495746
-0.352089
-0.254526
-0.183579
-0.126165
-0.073591
-0.0192649
0.042791
0.119216
0.218787
0.354816
0.547988
0.826397
1.23658
1.91168
2.9242
-4.36666
-2.04463
-0.973538
-0.563176
-0.357842
-0.240142
-0.170115
-0.123779
-0.0874772
-0.0535062
-0.0166504
0.0276647
0.0846115
0.161734
0.272415
0.442103
0.718223
1.22571
2.41104
4.84854
)
;

boundaryField
{
    movingWall
    {
        type            zeroGradient;
    }
    fixedWalls
    {
        type            zeroGradient;
    }
    frontAndBack
    {
        type            empty;
    }
}


// ************************************************************************* //
