/*--------------------------------*- C++ -*----------------------------------*\
  =========                 |
  \\      /  F ield         | OpenFOAM: The Open Source CFD Toolbox
   \\    /   O peration     | Website:  https://openfoam.org
    \\  /    A nd           | Version:  10
     \\/     M anipulation  |
\*---------------------------------------------------------------------------*/
FoamFile
{
    format      ascii;
    class       surfaceScalarField;
    location    "0.6";
    object      phi;
}
// * * * * * * * * * * * * * * * * * * * * * * * * * * * * * * * * * * * * * //

dimensions      [0 3 -1 0 0 0 0];

internalField   nonuniform List<scalar> 
760
(
1.42332e-08
-1.42684e-08
-2.22116e-08
3.64447e-08
-1.14277e-07
9.2065e-08
-2.4551e-07
1.31233e-07
-3.96124e-07
1.50615e-07
-5.47401e-07
1.51278e-07
-6.83235e-07
1.35833e-07
-7.90713e-07
1.07478e-07
-8.60261e-07
6.95476e-08
-8.85695e-07
2.54343e-08
-8.64371e-07
-2.13237e-08
-7.97435e-07
-6.69361e-08
-6.90124e-07
-1.07311e-07
-5.52003e-07
-1.38121e-07
-3.96964e-07
-1.55039e-07
-2.42761e-07
-1.54203e-07
-1.09738e-07
-1.33023e-07
-1.84166e-08
-9.13217e-08
1.56906e-08
-3.41072e-08
1.56907e-08
-3.42177e-08
1.99494e-08
-1.80387e-07
1.82615e-07
-4.34021e-07
3.45699e-07
-7.64492e-07
4.61704e-07
-1.1323e-06
5.18422e-07
-1.49736e-06
5.16339e-07
-1.82348e-06
4.61952e-07
-2.0807e-06
3.64695e-07
-2.24645e-06
2.35298e-07
-2.30621e-06
8.52015e-08
-2.25407e-06
-7.34697e-08
-2.0932e-06
-2.27802e-07
-1.83639e-06
-3.6412e-07
-1.50614e-06
-4.68367e-07
-1.13416e-06
-5.27026e-07
-7.5957e-07
-5.2879e-07
-4.25426e-07
-4.67167e-07
-1.72702e-07
-3.44046e-07
-3.08037e-08
-1.76006e-07
-1.5113e-08
-9.22352e-08
1.12185e-07
-3.57023e-07
4.47403e-07
-7.64615e-07
7.53291e-07
-1.26858e-06
9.65669e-07
-1.81483e-06
1.06467e-06
-2.34922e-06
1.05072e-06
-2.82264e-06
9.35373e-07
-3.19417e-06
7.36229e-07
-3.43285e-06
4.7398e-07
-3.51876e-06
1.71108e-07
-3.44381e-06
-1.48418e-07
-3.21247e-06
-4.59138e-07
-2.84229e-06
-7.34301e-07
-2.36396e-06
-9.46704e-07
-1.82043e-06
-1.07055e-06
-1.26456e-06
-1.08465e-06
-7.54568e-07
-9.77164e-07
-3.46991e-07
-7.51622e-07
-8.7341e-08
-4.35656e-07
-1.02454e-07
-1.45221e-07
2.57406e-07
-5.25497e-07
8.27679e-07
-1.0817e-06
1.3095e-06
-1.74762e-06
1.63159e-06
-2.45449e-06
1.77154e-06
-3.13657e-06
1.73281e-06
-3.73553e-06
1.53433e-06
-4.20317e-06
1.20387e-06
-4.5032e-06
7.74008e-07
-4.61221e-06
2.8012e-07
-4.52053e-06
-2.40098e-07
-4.23299e-06
-7.46684e-07
-3.76959e-06
-1.1977e-06
-3.16582e-06
-1.55047e-06
-2.47201e-06
-1.76436e-06
-1.75116e-06
-1.8055e-06
-1.07457e-06
-1.65376e-06
-5.15166e-07
-1.31102e-06
-1.39323e-07
-8.11499e-07
-2.41777e-07
-1.93621e-07
4.51027e-07
-6.85039e-07
1.3191e-06
-1.3857e-06
2.01016e-06
-2.20736e-06
2.45325e-06
-3.06563e-06
2.62981e-06
-3.88398e-06
2.55116e-06
-4.59675e-06
2.24709e-06
-5.15085e-06
1.75798e-06
-5.50673e-06
1.12989e-06
-5.63881e-06
4.12199e-07
-5.53603e-06
-3.42876e-07
-5.20263e-06
-1.08009e-06
-4.6591e-06
-1.74123e-06
-3.94314e-06
-2.26644e-06
-3.10985e-06
-2.59765e-06
-2.2306e-06
-2.68475e-06
-1.3897e-06
-2.49466e-06
-6.78529e-07
-2.02219e-06
-1.87776e-07
-1.30225e-06
-4.29553e-07
-2.39952e-07
6.90979e-07
-8.40388e-07
1.91953e-06
-1.68336e-06
2.85313e-06
-2.65717e-06
3.42706e-06
-3.661e-06
3.63363e-06
-4.60797e-06
3.49814e-06
-5.42659e-06
3.06571e-06
-6.06083e-06
2.39222e-06
-6.46963e-06
1.53869e-06
-6.62633e-06
5.68899e-07
-6.51859e-06
-4.50617e-07
-6.14905e-06
-1.44963e-06
-5.53676e-06
-2.35351e-06
-4.71911e-06
-3.08409e-06
-3.7536e-06
-3.56316e-06
-2.71858e-06
-3.71978e-06
-1.7116e-06
-3.50164e-06
-8.44693e-07
-2.8891e-06
-2.36188e-07
-1.91076e-06
-6.65741e-07
-2.86756e-07
9.77735e-07
-9.97122e-07
2.6299e-06
-1.98215e-06
3.83816e-06
-3.10505e-06
4.54997e-06
-4.2481e-06
4.77668e-06
-5.315e-06
4.56504e-06
-6.23033e-06
3.98104e-06
-6.93741e-06
3.0993e-06
-7.39574e-06
1.99702e-06
-7.57888e-06
7.52037e-07
-7.47341e-06
-5.56086e-07
-7.07935e-06
-1.84369e-06
-6.41209e-06
-3.02077e-06
-5.50576e-06
-3.99042e-06
-4.4172e-06
-4.65172e-06
-3.22947e-06
-4.9075e-06
-2.05301e-06
-4.67809e-06
-1.02257e-06
-3.91955e-06
-2.8829e-07
-2.64503e-06
-9.54031e-07
-3.3634e-07
1.31407e-06
-1.1604e-06
3.45396e-06
-2.28807e-06
4.96584e-06
-3.55508e-06
5.81698e-06
-4.82674e-06
6.04834e-06
-5.99922e-06
5.73751e-06
-6.99621e-06
4.97803e-06
-7.76372e-06
3.86681e-06
-8.26469e-06
2.49799e-06
-8.47482e-06
9.62169e-07
-8.38017e-06
-6.50743e-07
-7.97709e-06
-2.24677e-06
-7.27475e-06
-3.72311e-06
-6.3001e-06
-4.96507e-06
-5.10479e-06
-5.84703e-06
-3.77261e-06
-6.23968e-06
-2.42494e-06
-6.02577e-06
-1.22077e-06
-5.12372e-06
-3.47715e-07
-3.51809e-06
-1.30175e-06
-3.90963e-07
1.70504e-06
-1.33491e-06
4.3979e-06
-2.60501e-06
6.23594e-06
-4.006e-06
7.21796e-06
-5.38689e-06
7.42923e-06
-6.63985e-06
6.99047e-06
-7.69255e-06
6.03073e-06
-8.49859e-06
4.67286e-06
-9.02855e-06
3.02795e-06
-9.26306e-06
1.19668e-06
-9.18878e-06
-7.25018e-07
-8.79761e-06
-2.63795e-06
-8.08948e-06
-4.43124e-06
-7.07912e-06
-5.97543e-06
-5.80641e-06
-7.11974e-06
-4.34911e-06
-7.69698e-06
-2.83485e-06
-7.54002e-06
-1.44711e-06
-6.51145e-06
-4.18104e-07
-4.5471e-06
-1.71985e-06
-4.53455e-07
2.15849e-06
-1.52569e-06
5.47013e-06
-2.9349e-06
7.64515e-06
-4.45014e-06
8.73321e-06
-5.90636e-06
8.88545e-06
-7.19786e-06
8.28197e-06
-8.26372e-06
7.09659e-06
-9.07213e-06
5.48127e-06
-9.60694e-06
3.56276e-06
-9.85767e-06
1.4474e-06
-9.8135e-06
-7.69189e-07
-9.46145e-06
-2.98999e-06
-8.78918e-06
-5.10351e-06
-7.79306e-06
-6.97155e-06
-6.49226e-06
-8.42054e-06
-4.94801e-06
-9.24123e-06
-3.28513e-06
-9.20289e-06
-1.70869e-06
-8.0879e-06
-5.03591e-07
-5.7522e-06
-2.22344e-06
-5.28332e-07
2.68683e-06
-1.73965e-06
6.68145e-06
-3.27795e-06
9.18346e-06
-4.8716e-06
1.03269e-05
-6.34698e-06
1.03608e-05
-7.61079e-06
9.54578e-06
-8.62432e-06
8.11012e-06
-9.37964e-06
6.2366e-06
-9.88095e-06
4.06407e-06
-1.01315e-05
1.69795e-06
-1.01257e-05
-7.74934e-07
-9.8463e-06
-3.26944e-06
-9.26597e-06
-5.68385e-06
-8.35632e-06
-7.8812e-06
-7.10468e-06
-9.67218e-06
-5.54069e-06
-1.08052e-05
-3.7707e-06
-1.09729e-05
-2.01217e-06
-9.84644e-06
-6.09688e-07
-7.15468e-06
-2.83313e-06
-6.23658e-07
3.31048e-06
-1.98736e-06
8.04515e-06
-3.63186e-06
1.0828e-05
-5.24186e-06
1.19368e-05
-6.64748e-06
1.17665e-05
-7.78437e-06
1.06827e-05
-8.6509e-06
8.97664e-06
-9.27418e-06
6.85988e-06
-9.68641e-06
4.4763e-06
-9.90969e-06
1.92123e-06
-9.94711e-06
-7.37509e-07
-9.77848e-06
-3.43807e-06
-9.36079e-06
-6.10154e-06
-8.63554e-06
-8.60645e-06
-7.54633e-06
-1.07614e-05
-6.07154e-06
-1.228e-05
-4.27425e-06
-1.27702e-05
-2.36364e-06
-1.1757e-05
-7.44774e-07
-8.77354e-06
-3.5779e-06
-7.54064e-07
4.06455e-06
-2.28431e-06
9.5754e-06
-3.98694e-06
1.25306e-05
-5.50899e-06
1.34589e-05
-6.70947e-06
1.29669e-05
-7.5784e-06
1.15516e-05
-8.16987e-06
9.56812e-06
-8.55743e-06
7.24744e-06
-8.80753e-06
4.72639e-06
-8.96485e-06
2.07856e-06
-9.04418e-06
-6.58182e-07
-9.02558e-06
-3.45667e-06
-8.85245e-06
-6.27466e-06
-8.4347e-06
-9.0242e-06
-7.66282e-06
-1.15333e-05
-6.44194e-06
-1.35009e-05
-4.75622e-06
-1.44559e-05
-2.76673e-06
-1.37465e-05
-9.22429e-07
-1.06178e-05
-4.50033e-06
-9.45191e-07
5.00974e-06
-2.64844e-06
1.12787e-05
-4.3109e-06
1.41931e-05
-5.57316e-06
1.47212e-05
-6.37051e-06
1.37643e-05
-6.78306e-06
1.19641e-05
-6.94024e-06
9.7253e-06
-6.96944e-06
7.27665e-06
-6.97247e-06
4.72942e-06
-7.01619e-06
2.12227e-06
-7.1283e-06
-5.4607e-07
-7.29348e-06
-3.29149e-06
-7.44839e-06
-6.11975e-06
-7.47768e-06
-8.99491e-06
-7.21778e-06
-1.17932e-05
-6.48264e-06
-1.4236e-05
-5.13337e-06
-1.58052e-05
-3.21495e-06
-1.5665e-05
-1.16438e-06
-1.26684e-05
-5.66471e-06
-1.2373e-06
6.24704e-06
-3.08324e-06
1.31246e-05
-4.50761e-06
1.56174e-05
-5.23433e-06
1.54479e-05
-5.35501e-06
1.3885e-05
-5.08157e-06
1.16907e-05
-4.63059e-06
9.27431e-06
-4.17892e-06
6.82498e-06
-3.85399e-06
4.4045e-06
-3.73665e-06
2.00493e-06
-3.86477e-06
-4.17955e-07
-4.23231e-06
-2.92396e-06
-4.78179e-06
-5.57027e-06
-5.39082e-06
-8.38587e-06
-5.8583e-06
-1.13257e-05
-5.90644e-06
-1.41879e-05
-5.23274e-06
-1.64789e-05
-3.66623e-06
-1.72315e-05
-1.50007e-06
-1.48346e-05
-7.16478e-06
-1.67379e-06
7.92083e-06
-3.51332e-06
1.49641e-05
-4.31521e-06
1.64193e-05
-4.08873e-06
1.52214e-05
-3.19285e-06
1.29891e-05
-1.99848e-06
1.04963e-05
-7.94838e-07
8.07067e-06
2.19678e-07
5.81046e-06
9.18597e-07
3.70558e-06
1.22598e-06
1.69755e-06
1.10243e-06
-2.94404e-07
5.41398e-07
-2.36293e-06
-4.2263e-07
-4.60624e-06
-1.69232e-06
-7.11618e-06
-3.07221e-06
-9.9458e-06
-4.23068e-06
-1.30294e-05
-4.69556e-06
-1.6014e-05
-3.96714e-06
-1.79599e-05
-1.94491e-06
-1.68568e-05
-9.10969e-06
-2.23068e-06
1.01515e-05
-3.59026e-06
1.63237e-05
-3.07771e-06
1.59068e-05
-1.34376e-06
1.34874e-05
8.97208e-07
1.07481e-05
3.15519e-06
8.23836e-06
5.13839e-06
6.08748e-06
6.689e-06
4.25985e-06
7.72616e-06
2.66841e-06
8.20689e-06
1.21682e-06
8.10422e-06
-1.91732e-07
7.39934e-06
-1.65805e-06
6.08713e-06
-3.29403e-06
4.19941e-06
-5.22847e-06
1.85433e-06
-7.60072e-06
-6.61587e-07
-1.05135e-05
-2.7921e-06
-1.38835e-05
-3.66205e-06
-1.70899e-05
-2.41153e-06
-1.81073e-05
-1.15212e-05
-2.57381e-06
1.27253e-05
-2.18344e-06
1.59333e-05
7.18119e-07
1.30052e-05
4.46965e-06
9.73591e-06
8.13342e-06
7.08435e-06
1.13017e-05
5.07003e-06
1.38293e-05
3.55992e-06
1.56883e-05
2.40082e-06
1.68919e-05
1.46482e-06
1.74551e-05
6.53609e-07
1.73766e-05
-1.13208e-07
1.66307e-05
-9.12172e-07
1.51674e-05
-1.83069e-06
1.29237e-05
-2.98476e-06
9.86189e-06
-4.53892e-06
6.06206e-06
-6.71367e-06
1.9124e-06
-9.73383e-06
-1.55959e-06
-1.36179e-05
-2.45833e-06
-1.72086e-05
-1.39795e-05
-7.85014e-07
1.35103e-05
4.0808e-06
1.10675e-05
1.02976e-05
6.78843e-06
1.57937e-05
4.2398e-06
2.01581e-05
2.71992e-06
2.34582e-05
1.76996e-06
2.5861e-05
1.15715e-06
2.75217e-05
7.40062e-07
2.85542e-05
4.32299e-07
2.90266e-05
1.81223e-07
2.89624e-05
-4.8984e-08
2.83389e-05
-2.88705e-07
2.7082e-05
-5.73749e-07
2.50552e-05
-9.57966e-07
2.20518e-05
-1.53553e-06
1.78156e-05
-2.47743e-06
1.21724e-05
-4.09069e-06
5.47774e-06
-6.92325e-06
-1.29166e-07
-1.16017e-05
-1.41087e-05
1.35103e-05
2.45778e-05
3.13663e-05
3.56061e-05
3.8326e-05
4.0096e-05
4.12531e-05
4.19932e-05
4.24255e-05
4.26067e-05
4.25577e-05
4.2269e-05
4.16953e-05
4.07373e-05
3.92018e-05
3.67243e-05
3.26336e-05
2.57104e-05
1.41087e-05
)
;

boundaryField
{
    movingWall
    {
        type            calculated;
        value           uniform 0;
    }
    fixedWalls
    {
        type            calculated;
        value           uniform 0;
    }
    frontAndBack
    {
        type            empty;
        value           nonuniform List<scalar> 0();
    }
}


// ************************************************************************* //
