/*--------------------------------*- C++ -*----------------------------------*\
  =========                 |
  \\      /  F ield         | OpenFOAM: The Open Source CFD Toolbox
   \\    /   O peration     | Website:  https://openfoam.org
    \\  /    A nd           | Version:  10
     \\/     M anipulation  |
\*---------------------------------------------------------------------------*/
FoamFile
{
    format      ascii;
    class       volScalarField;
    location    "0.6";
    object      psi;
}
// * * * * * * * * * * * * * * * * * * * * * * * * * * * * * * * * * * * * * //

dimensions      [0 0 0 0 0 0 0];

internalField   nonuniform List<scalar> 
400
(
0.00388783
0.00658114
0.0119172
0.0190004
0.0262695
0.0322077
0.0359841
0.037519
0.0371716
0.0354102
0.0326307
0.0290047
0.0246859
0.0200078
0.0153121
0.0108965
0.00704051
0.00401673
0.00202177
0.00108811
0.00771748
0.0129131
0.0223588
0.0335849
0.0435464
0.0501947
0.0530446
0.0526902
0.0501005
0.0461949
0.0417199
0.037027
0.0321941
0.0272714
0.0221774
0.0168723
0.0115747
0.00685819
0.0034602
0.00179414
0.0163599
0.0262282
0.0424956
0.05924
0.071465
0.0772354
0.0772494
0.0733637
0.0675118
0.0612928
0.0559571
0.0520486
0.0489079
0.0454314
0.0404741
0.0333769
0.0243983
0.0149718
0.00742139
0.00356386
0.0305494
0.0463857
0.0699686
0.0905486
0.101895
0.103623
0.0987056
0.0908955
0.0834143
0.0786081
0.0780043
0.0811756
0.0848347
0.0858326
0.0817507
0.0713545
0.0550014
0.0352925
0.0175291
0.00766704
0.0501159
0.0716976
0.100694
0.12136
0.127997
0.123573
0.114395
0.106449
0.10394
0.108989
0.121792
0.13866
0.152579
0.159077
0.155419
0.140194
0.113368
0.0775224
0.0406826
0.0171976
0.0738985
0.099608
0.130639
0.14751
0.147456
0.138406
0.130323
0.130595
0.142602
0.165811
0.19662
0.22727
0.249121
0.258661
0.254268
0.234722
0.198724
0.146262
0.0842463
0.0370829
0.10025
0.127701
0.157226
0.167996
0.162485
0.15416
0.155447
0.172699
0.205564
0.248476
0.293154
0.330154
0.353259
0.361821
0.356064
0.335128
0.296132
0.234643
0.150704
0.0726245
0.127548
0.154256
0.179583
0.184198
0.177186
0.176485
0.19423
0.23255
0.285104
0.341043
0.38946
0.423142
0.441055
0.445639
0.4387
0.419813
0.385188
0.32662
0.234228
0.127229
0.154481
0.178329
0.198066
0.198384
0.194868
0.207336
0.244289
0.301294
0.365898
0.424257
0.466475
0.490216
0.499645
0.499226
0.4916
0.476775
0.451168
0.405411
0.322076
0.200268
0.180136
0.1996
0.213607
0.212494
0.216735
0.244771
0.298879
0.367671
0.434612
0.486215
0.516473
0.528185
0.528952
0.52398
0.516044
0.505467
0.489634
0.460685
0.399709
0.285515
0.203959
0.218144
0.227205
0.227535
0.241925
0.284569
0.350609
0.423215
0.484704
0.524539
0.541518
0.542229
0.53581
0.527374
0.519367
0.512174
0.504237
0.490514
0.456286
0.370989
0.22566
0.23423
0.239604
0.243489
0.26818
0.321993
0.393791
0.463834
0.515722
0.542793
0.547881
0.539736
0.527983
0.517304
0.509523
0.50476
0.502103
0.499148
0.487805
0.441949
0.245096
0.248165
0.251155
0.259461
0.292536
0.352737
0.424785
0.488563
0.53013
0.546046
0.54158
0.52657
0.511136
0.499441
0.492424
0.48962
0.490205
0.493418
0.496973
0.487069
0.262164
0.260194
0.261776
0.273876
0.311687
0.372915
0.440876
0.497044
0.529956
0.537735
0.526197
0.505828
0.488241
0.476872
0.471477
0.47079
0.473635
0.479813
0.490496
0.503798
0.276733
0.270464
0.270998
0.28471
0.322185
0.378654
0.438712
0.486874
0.513708
0.517087
0.501588
0.477911
0.460194
0.450779
0.448135
0.450226
0.455317
0.462969
0.475642
0.498371
0.288704
0.279099
0.278234
0.290166
0.321456
0.367172
0.415058
0.454062
0.475824
0.476046
0.461422
0.441619
0.427287
0.421618
0.422784
0.428452
0.436416
0.445407
0.457841
0.480881
0.298317
0.286537
0.283662
0.290623
0.312155
0.345293
0.376053
0.399175
0.411109
0.41108
0.403267
0.395742
0.391205
0.391208
0.396056
0.405345
0.41689
0.427923
0.439991
0.459971
0.30665
0.294194
0.289707
0.292196
0.303467
0.319448
0.333967
0.344797
0.351144
0.353342
0.353203
0.354439
0.357645
0.363356
0.371901
0.383129
0.396088
0.410056
0.422857
0.440439
0.315969
0.304128
0.301021
0.301859
0.305894
0.311476
0.317134
0.32229
0.326819
0.330858
0.334803
0.339336
0.34463
0.350929
0.35856
0.367913
0.379252
0.392158
0.405436
0.423508
0.32584
0.321698
0.32147
0.322795
0.325009
0.32775
0.330801
0.334055
0.33747
0.34104
0.344771
0.348659
0.352748
0.3571
0.361801
0.366991
0.372917
0.380085
0.389903
0.407041
)
;

boundaryField
{
    movingWall
    {
        type            zeroGradient;
    }
    fixedWalls
    {
        type            zeroGradient;
    }
    frontAndBack
    {
        type            empty;
    }
}


// ************************************************************************* //
