/*--------------------------------*- C++ -*----------------------------------*\
  =========                 |
  \\      /  F ield         | OpenFOAM: The Open Source CFD Toolbox
   \\    /   O peration     | Website:  https://openfoam.org
    \\  /    A nd           | Version:  10
     \\/     M anipulation  |
\*---------------------------------------------------------------------------*/
FoamFile
{
    format      ascii;
    class       volScalarField;
    location    "0.8";
    object      p;
}
// * * * * * * * * * * * * * * * * * * * * * * * * * * * * * * * * * * * * * //

dimensions      [0 2 -2 0 0 0 0];

internalField   nonuniform List<scalar> 
400
(
3.87149e-06
-0.00582341
-0.0129613
-0.0184138
-0.0204314
-0.0182378
-0.0117733
-0.00148315
0.011838
0.0271499
0.0432453
0.0588241
0.0725799
0.0833097
0.0900541
0.0922682
0.090027
0.084245
0.0768817
0.0710682
0.00578267
-0.000216573
-0.00580259
-0.00954141
-0.010598
-0.00843187
-0.00296917
0.00547483
0.0163036
0.0287124
0.0417506
0.0543869
0.0655875
0.0744111
0.0801215
0.082317
0.0810784
0.0770559
0.0712751
0.0653188
0.013337
0.00503527
-0.000993951
-0.00442196
-0.00527195
-0.00326307
0.00160314
0.00902833
0.0185028
0.02935
0.0407662
0.0518705
0.0617695
0.0696374
0.0748082
0.0768792
0.0758427
0.0720869
0.0658064
0.0575363
0.0201412
0.00869754
0.00122724
-0.00266735
-0.00372112
-0.00188445
0.00273205
0.00978531
0.0187811
0.0290958
0.0399927
0.0506548
0.0602338
0.0679169
0.0730042
0.0750025
0.0737668
0.069457
0.0616038
0.0501032
0.0245038
0.0097747
0.000591202
-0.00398566
-0.00530116
-0.00350644
0.00117552
0.00833529
0.0174627
0.0279498
0.0390857
0.0500707
0.0600497
0.0681659
0.0736272
0.0757986
0.0743699
0.0692906
0.0595263
0.0445378
0.0251796
0.00715158
-0.00380058
-0.00905587
-0.010511
-0.00849898
-0.00335597
0.00443017
0.0143141
0.0256797
0.0378146
0.0499041
0.0610489
0.0703039
0.0767354
0.0795177
0.0781397
0.0723343
0.06054
0.0418907
0.0210951
-0.000260897
-0.0129331
-0.018708
-0.0200286
-0.0174128
-0.0113174
-0.00231887
0.00899118
0.0219769
0.0359104
0.0499451
0.063113
0.0743461
0.0825226
0.0865702
0.0857215
0.0794478
0.0656211
0.0430724
0.0111443
-0.0136168
-0.0278737
-0.0338529
-0.0346022
-0.0308563
-0.0232117
-0.0123442
0.00110568
0.0164847
0.0330533
0.0499344
0.0660842
0.0802907
0.0912015
0.0974308
0.0978711
0.0916368
0.075897
0.0491172
-0.00596578
-0.0342652
-0.0498688
-0.0555474
-0.0550889
-0.0495133
-0.0395923
-0.0261122
-0.00975615
0.00882385
0.0289018
0.0495943
0.0697983
0.0881554
0.103048
0.112702
0.115551
0.110193
0.0928351
0.0614122
-0.0318559
-0.0638749
-0.0804158
-0.085006
-0.0824189
-0.0740771
-0.0609797
-0.0440354
-0.0239504
-0.00133591
0.0231465
0.0486619
0.0740965
0.0979732
0.118397
0.133127
0.13999
0.136819
0.118442
0.0819347
-0.0686661
-0.104602
-0.121343
-0.123589
-0.117514
-0.105125
-0.087717
-0.0663243
-0.0416358
-0.0141545
0.0156066
0.0469542
0.0788567
0.109794
0.137625
0.159587
0.172728
0.173779
0.155522
0.113572
-0.119401
-0.159356
-0.174914
-0.172756
-0.161147
-0.142928
-0.119758
-0.0927757
-0.0625761
-0.0294464
0.00637436
0.0444747
0.0840563
0.123704
0.161137
0.193087
0.215669
0.224078
0.208052
0.160634
-0.188627
-0.232241
-0.243937
-0.233946
-0.213693
-0.187153
-0.156371
-0.1225
-0.0858965
-0.0464707
-0.00401298
0.0415403
0.0898436
0.139831
0.18932
0.234691
0.271076
0.291666
0.281744
0.229777
-0.283973
-0.329303
-0.33183
-0.308278
-0.274707
-0.236438
-0.195763
-0.153608
-0.109838
-0.0637434
-0.0144361
0.0388652
0.0965561
0.158278
0.222376
0.28529
0.341399
0.381577
0.384916
0.331836
-0.419317
-0.459669
-0.442348
-0.39579
-0.342127
-0.287737
-0.234613
-0.182928
-0.131607
-0.0789827
-0.0232118
0.0374776
0.104555
0.17884
0.259863
0.344972
0.428618
0.499702
0.529677
0.485394
-0.620529
-0.636741
-0.578674
-0.49419
-0.411238
-0.335655
-0.267777
-0.205975
-0.147534
-0.0893802
-0.0284233
0.0383511
0.11381
0.200474
0.299978
0.412028
0.533032
0.651778
0.732774
0.722398
-0.935921
-0.878512
-0.741738
-0.597945
-0.47439
-0.372656
-0.288865
-0.217759
-0.15395
-0.0924607
-0.0287141
0.0416989
0.123267
0.220721
0.338929
0.482158
0.652
0.841345
1.01527
1.09751
-1.47642
-1.20663
-0.9205
-0.691384
-0.517301
-0.38754
-0.290057
-0.213334
-0.14812
-0.087212
-0.0245742
0.0454608
0.128941
0.233074
0.367106
0.542681
0.771296
1.05932
1.40329
1.73014
-2.53964
-1.63054
-1.04443
-0.710955
-0.495747
-0.352089
-0.254527
-0.18358
-0.126166
-0.0735916
-0.0192656
0.0427903
0.119216
0.218786
0.354815
0.547987
0.826396
1.23658
1.91168
2.9242
-4.36666
-2.04463
-0.973538
-0.563177
-0.357842
-0.240143
-0.170116
-0.123779
-0.0874778
-0.0535068
-0.0166511
0.027664
0.0846107
0.161733
0.272414
0.442102
0.718222
1.22571
2.41104
4.84853
)
;

boundaryField
{
    movingWall
    {
        type            zeroGradient;
    }
    fixedWalls
    {
        type            zeroGradient;
    }
    frontAndBack
    {
        type            empty;
    }
}


// ************************************************************************* //
