/*--------------------------------*- C++ -*----------------------------------*\
  =========                 |
  \\      /  F ield         | OpenFOAM: The Open Source CFD Toolbox
   \\    /   O peration     | Website:  https://openfoam.org
    \\  /    A nd           | Version:  10
     \\/     M anipulation  |
\*---------------------------------------------------------------------------*/
FoamFile
{
    format      ascii;
    class       volScalarField;
    location    "0.8";
    object      psi;
}
// * * * * * * * * * * * * * * * * * * * * * * * * * * * * * * * * * * * * * //

dimensions      [0 0 0 0 0 0 0];

internalField   nonuniform List<scalar> 
400
(
0.0108114
0.0148998
0.022176
0.0304655
0.0375307
0.042059
0.0439103
0.0436916
0.0422208
0.0402053
0.0381361
0.0360944
0.0337321
0.0307076
0.0267551
0.0218102
0.0161614
0.0105543
0.00607536
0.00369862
0.0167543
0.0225947
0.0320669
0.0415886
0.0484049
0.0517877
0.0525648
0.0520752
0.0514757
0.0515419
0.0527514
0.0546351
0.0556345
0.0545707
0.0506061
0.0434124
0.0334393
0.0222439
0.0125227
0.0070423
0.0282289
0.0361988
0.0478755
0.0578748
0.0637974
0.0665307
0.0683165
0.0711303
0.0761122
0.0836628
0.0937431
0.10432
0.111628
0.113501
0.108624
0.0964136
0.0773014
0.0536241
0.0308265
0.0166962
0.0439561
0.0532727
0.0658782
0.0755003
0.0814646
0.0868755
0.095074
0.107861
0.125349
0.14644
0.169363
0.189804
0.202688
0.20618
0.199393
0.181593
0.152266
0.112578
0.069159
0.0381263
0.0624197
0.0717135
0.0841087
0.0940022
0.103355
0.117097
0.138392
0.167272
0.201251
0.236445
0.268585
0.292579
0.305401
0.307365
0.298793
0.278836
0.245187
0.195238
0.131747
0.077319
0.0821828
0.0902455
0.102303
0.11481
0.132189
0.159588
0.197857
0.243389
0.290062
0.33137
0.362098
0.379836
0.386417
0.384584
0.375652
0.358729
0.330148
0.283229
0.212341
0.136749
0.10214
0.108353
0.121031
0.139258
0.168483
0.211597
0.264989
0.320549
0.369374
0.404822
0.424066
0.429715
0.427896
0.422336
0.414517
0.403719
0.386403
0.354493
0.294918
0.212195
0.121566
0.125974
0.140872
0.167475
0.209941
0.266505
0.328144
0.383333
0.423172
0.444207
0.448415
0.442645
0.434314
0.426506
0.420258
0.41522
0.409239
0.396192
0.361595
0.292621
0.140055
0.143219
0.162012
0.198359
0.252707
0.317326
0.378649
0.424422
0.44889
0.453746
0.445559
0.432677
0.421064
0.412433
0.407246
0.405542
0.406837
0.408599
0.401141
0.363232
0.157423
0.160207
0.184198
0.230135
0.293021
0.359412
0.413484
0.445196
0.453781
0.445797
0.430313
0.414688
0.402275
0.393538
0.388532
0.387574
0.391377
0.400553
0.412572
0.410693
0.173616
0.176997
0.206881
0.260986
0.328293
0.391235
0.434404
0.4519
0.447944
0.432183
0.41391
0.398322
0.386283
0.37748
0.371824
0.369799
0.372687
0.382798
0.403117
0.4287
0.188659
0.193586
0.229396
0.289459
0.357386
0.413756
0.445659
0.451758
0.439907
0.420809
0.402561
0.388176
0.376608
0.367279
0.360236
0.356103
0.356323
0.363593
0.383177
0.42067
0.202609
0.209923
0.251074
0.314584
0.380335
0.429302
0.452054
0.450949
0.435603
0.41623
0.399274
0.386099
0.374298
0.363552
0.354342
0.347445
0.344329
0.347401
0.361614
0.39717
0.215543
0.225891
0.271221
0.335707
0.397728
0.440402
0.457687
0.454047
0.439056
0.421454
0.406014
0.393092
0.379594
0.366082
0.353761
0.343476
0.336759
0.335606
0.343485
0.369838
0.227518
0.241185
0.288909
0.351996
0.409709
0.448343
0.464463
0.462981
0.452064
0.438415
0.424574
0.409721
0.392343
0.374368
0.357919
0.343531
0.332914
0.32788
0.330303
0.346437
0.238454
0.254999
0.302485
0.361592
0.414542
0.451041
0.469064
0.472758
0.467779
0.460514
0.451135
0.432794
0.410339
0.386963
0.365977
0.346966
0.332035
0.323332
0.321529
0.329725
0.247839
0.265527
0.309026
0.36102
0.408959
0.44329
0.460187
0.466557
0.466366
0.462593
0.455241
0.44073
0.421152
0.398723
0.375559
0.352797
0.33348
0.321126
0.315961
0.319107
0.254518
0.270033
0.305815
0.351159
0.385604
0.409478
0.423035
0.429501
0.431008
0.428847
0.423481
0.414957
0.40341
0.38903
0.37226
0.354063
0.336229
0.320628
0.312482
0.312763
0.257605
0.269624
0.294164
0.318496
0.336372
0.348616
0.356267
0.360494
0.362126
0.361693
0.359651
0.357044
0.353767
0.349639
0.344381
0.337615
0.32899
0.318839
0.310232
0.308951
0.259696
0.264855
0.271911
0.278405
0.283646
0.287756
0.290975
0.293509
0.295497
0.297027
0.298219
0.299341
0.300389
0.301355
0.302226
0.302985
0.303614
0.304119
0.304692
0.306286
)
;

boundaryField
{
    movingWall
    {
        type            zeroGradient;
    }
    fixedWalls
    {
        type            zeroGradient;
    }
    frontAndBack
    {
        type            empty;
    }
}


// ************************************************************************* //
