/*--------------------------------*- C++ -*----------------------------------*\
  =========                 |
  \\      /  F ield         | OpenFOAM: The Open Source CFD Toolbox
   \\    /   O peration     | Website:  https://openfoam.org
    \\  /    A nd           | Version:  10
     \\/     M anipulation  |
\*---------------------------------------------------------------------------*/
FoamFile
{
    format      ascii;
    class       volScalarField;
    location    "0.3";
    object      psi;
}
// * * * * * * * * * * * * * * * * * * * * * * * * * * * * * * * * * * * * * //

dimensions      [0 0 0 0 0 0 0];

internalField   nonuniform List<scalar> 
400
(
0.000101031
0.000311942
0.000937246
0.00225176
0.00435467
0.00697468
0.00956302
0.0116145
0.0129294
0.0136089
0.0138311
0.0133136
0.0116412
0.00903901
0.00607124
0.0034235
0.00157358
0.000576533
0.000167985
4.71717e-05
0.000396406
0.00124634
0.00363482
0.0082898
0.0150599
0.0226507
0.029382
0.0341817
0.0369281
0.0380813
0.0381404
0.0362265
0.0312919
0.02416
0.016347
0.00943628
0.00449514
0.00171021
0.000511906
0.000142456
0.00151089
0.00466274
0.0129351
0.0276669
0.0471465
0.0670855
0.0833256
0.0938716
0.0988313
0.0991578
0.0955927
0.0866102
0.0717155
0.0537896
0.0360886
0.0211943
0.0105476
0.00427859
0.00137308
0.000403299
0.00464724
0.0137904
0.0359276
0.0716852
0.114602
0.154663
0.184162
0.200166
0.203144
0.194623
0.175972
0.1481
0.115144
0.0826661
0.0544864
0.032448
0.0169563
0.00746173
0.0026514
0.00085874
0.0114928
0.0322558
0.0782854
0.145313
0.217694
0.277892
0.315112
0.326568
0.314268
0.282072
0.234827
0.180871
0.130586
0.0891041
0.057515
0.034747
0.0191353
0.00920462
0.00368079
0.0013578
0.0233314
0.0614209
0.138473
0.238967
0.334819
0.401992
0.429546
0.418071
0.374633
0.309402
0.234224
0.164195
0.11005
0.071924
0.0462198
0.028911
0.0170216
0.00892504
0.00393344
0.00163916
0.0404044
0.0997712
0.209381
0.336609
0.440776
0.495234
0.493672
0.444637
0.364416
0.272111
0.185815
0.11985
0.0772148
0.0515871
0.0359265
0.0251389
0.0165023
0.009285
0.00407853
0.00166111
0.0621341
0.144316
0.282866
0.424749
0.519883
0.544792
0.503094
0.415124
0.307757
0.206598
0.129727
0.0829493
0.0588988
0.0471585
0.0399258
0.0327934
0.0241438
0.0144772
0.00603604
0.00183592
0.0876531
0.191985
0.352511
0.495747
0.567843
0.554614
0.473549
0.357603
0.241251
0.150223
0.0956365
0.0723984
0.0658399
0.0647096
0.0622491
0.0553629
0.0435014
0.0279893
0.0123178
0.00299398
0.116055
0.240275
0.414376
0.547446
0.588525
0.537473
0.426689
0.298958
0.190589
0.121289
0.0921581
0.0898269
0.0965987
0.102196
0.101394
0.092364
0.0753613
0.0519264
0.0255853
0.00636645
0.14658
0.287442
0.466783
0.581619
0.590061
0.508146
0.380986
0.256128
0.166261
0.122187
0.116161
0.130457
0.14669
0.155926
0.154459
0.141695
0.11868
0.0868576
0.0482421
0.0138394
0.178787
0.332506
0.50982
0.602418
0.581946
0.479692
0.348953
0.236852
0.169451
0.149242
0.162636
0.190069
0.212665
0.222835
0.218538
0.200569
0.171065
0.131599
0.0816462
0.0282983
0.212666
0.375147
0.54483
0.615235
0.5735
0.462563
0.3385
0.244259
0.198996
0.199466
0.228999
0.266819
0.292639
0.300728
0.291139
0.266161
0.229438
0.183446
0.125296
0.0534503
0.248611
0.415509
0.573979
0.625989
0.573349
0.465292
0.355637
0.281273
0.256004
0.273779
0.316384
0.361083
0.385813
0.388113
0.370475
0.336303
0.290971
0.23903
0.176639
0.0923976
0.28707
0.45382
0.599772
0.640466
0.58896
0.494748
0.405431
0.351479
0.343994
0.376883
0.429403
0.473374
0.490734
0.483219
0.455201
0.409801
0.353849
0.295397
0.231762
0.145093
0.327513
0.489555
0.624057
0.662839
0.624759
0.553781
0.488658
0.45285
0.458983
0.503055
0.56248
0.593852
0.599463
0.580809
0.542727
0.48591
0.41751
0.350837
0.286703
0.206622
0.366401
0.519443
0.645263
0.691661
0.67542
0.631065
0.596612
0.58327
0.594372
0.624983
0.661456
0.682667
0.68408
0.664459
0.624346
0.561903
0.482053
0.40524
0.338799
0.268759
0.394384
0.533474
0.653202
0.711781
0.716386
0.704969
0.696187
0.695156
0.702143
0.714494
0.726875
0.730705
0.723749
0.703584
0.667867
0.614926
0.545277
0.459804
0.387616
0.324434
0.393641
0.523019
0.618167
0.665762
0.685444
0.693323
0.696877
0.698853
0.699944
0.699832
0.6975
0.691878
0.682216
0.667251
0.644957
0.61227
0.565418
0.503071
0.435702
0.37147
0.378432
0.437497
0.475201
0.498154
0.512164
0.520858
0.52626
0.529423
0.530858
0.530769
0.529368
0.527246
0.524253
0.520185
0.514735
0.507416
0.497372
0.482944
0.460017
0.415564
)
;

boundaryField
{
    movingWall
    {
        type            zeroGradient;
    }
    fixedWalls
    {
        type            zeroGradient;
    }
    frontAndBack
    {
        type            empty;
    }
}


// ************************************************************************* //
