/*--------------------------------*- C++ -*----------------------------------*\
  =========                 |
  \\      /  F ield         | OpenFOAM: The Open Source CFD Toolbox
   \\    /   O peration     | Website:  https://openfoam.org
    \\  /    A nd           | Version:  10
     \\/     M anipulation  |
\*---------------------------------------------------------------------------*/
FoamFile
{
    format      ascii;
    class       volScalarField;
    location    "0.9";
    object      p;
}
// * * * * * * * * * * * * * * * * * * * * * * * * * * * * * * * * * * * * * //

dimensions      [0 2 -2 0 0 0 0];

internalField   nonuniform List<scalar> 
400
(
3.695e-06
-0.0058237
-0.0129617
-0.0184142
-0.0204318
-0.0182382
-0.0117737
-0.00148342
0.0118377
0.0271496
0.0432449
0.0588237
0.0725794
0.0833093
0.0900538
0.0922679
0.0900267
0.0842447
0.0768814
0.0710678
0.00578236
-0.000216876
-0.00580288
-0.00954172
-0.0105983
-0.00843228
-0.0029696
0.00547447
0.0163033
0.0287122
0.0417503
0.0543866
0.0655871
0.0744107
0.0801211
0.0823166
0.0810781
0.0770556
0.0712748
0.0653185
0.0133366
0.00503493
-0.000994243
-0.00442223
-0.00527223
-0.00326343
0.00160271
0.00902789
0.0185024
0.0293497
0.0407659
0.0518702
0.0617692
0.0696371
0.0748077
0.0768788
0.0758424
0.0720866
0.0658061
0.057536
0.0201409
0.00869716
0.0012269
-0.00266762
-0.00372136
-0.00188473
0.00273169
0.00978487
0.0187806
0.0290954
0.0399924
0.0506546
0.0602336
0.0679166
0.0730038
0.0750021
0.0737664
0.0694567
0.0616035
0.050103
0.0245034
0.00977431
0.000590801
-0.003986
-0.00530142
-0.00350666
0.00117525
0.00833491
0.0174622
0.0279493
0.0390853
0.0500704
0.0600494
0.0681657
0.0736269
0.0757982
0.0743695
0.0692902
0.059526
0.0445374
0.0251793
0.00715123
-0.00380101
-0.0090563
-0.0105113
-0.00849922
-0.00335617
0.00442991
0.0143137
0.0256793
0.0378141
0.0499037
0.0610486
0.0703037
0.0767352
0.0795174
0.0781393
0.0723339
0.0605396
0.0418903
0.0210948
-0.000261191
-0.0129335
-0.0187084
-0.020029
-0.0174131
-0.0113176
-0.00231906
0.00899091
0.0219765
0.0359099
0.0499447
0.0631125
0.0743457
0.0825224
0.08657
0.0857212
0.0794475
0.0656207
0.043072
0.011144
-0.0136171
-0.0278741
-0.0338533
-0.0346027
-0.0308567
-0.0232121
-0.0123445
0.00110548
0.0164844
0.0330529
0.049934
0.0660837
0.0802903
0.0912012
0.0974305
0.0978708
0.0916365
0.0758967
0.0491168
-0.00596613
-0.0342654
-0.0498691
-0.0555477
-0.0550893
-0.0495138
-0.0395927
-0.0261126
-0.00975638
0.00882364
0.0289015
0.0495939
0.0697979
0.088155
0.103048
0.112702
0.115551
0.110192
0.0928348
0.0614119
-0.0318563
-0.0638752
-0.080416
-0.0850063
-0.0824193
-0.0740776
-0.0609802
-0.0440359
-0.0239508
-0.00133617
0.0231463
0.0486616
0.0740961
0.0979728
0.118396
0.133126
0.139989
0.136819
0.118441
0.0819344
-0.0686666
-0.104603
-0.121344
-0.123589
-0.117515
-0.105126
-0.0877175
-0.0663248
-0.0416363
-0.0141548
0.0156063
0.0469539
0.0788565
0.109794
0.137624
0.159586
0.172728
0.173779
0.155521
0.113572
-0.119402
-0.159356
-0.174914
-0.172756
-0.161147
-0.142928
-0.119758
-0.0927762
-0.0625766
-0.0294468
0.00637398
0.0444744
0.084056
0.123704
0.161137
0.193087
0.215669
0.224078
0.208051
0.160633
-0.188627
-0.232241
-0.243938
-0.233947
-0.213693
-0.187153
-0.156371
-0.1225
-0.0858969
-0.0464712
-0.00401344
0.0415399
0.0898432
0.13983
0.18932
0.23469
0.271076
0.291665
0.281744
0.229777
-0.283973
-0.329303
-0.33183
-0.308279
-0.274707
-0.236438
-0.195763
-0.153608
-0.109839
-0.0637438
-0.0144365
0.0388648
0.0965557
0.158278
0.222376
0.285289
0.341399
0.381576
0.384915
0.331835
-0.419317
-0.459669
-0.442349
-0.39579
-0.342127
-0.287737
-0.234614
-0.182928
-0.131607
-0.078983
-0.0232121
0.0374772
0.104555
0.17884
0.259863
0.344972
0.428618
0.499702
0.529677
0.485393
-0.620529
-0.636741
-0.578675
-0.494191
-0.411238
-0.335656
-0.267778
-0.205975
-0.147534
-0.0893804
-0.0284236
0.0383507
0.113809
0.200474
0.299977
0.412027
0.533032
0.651777
0.732774
0.722398
-0.935921
-0.878512
-0.741739
-0.597946
-0.47439
-0.372656
-0.288865
-0.21776
-0.15395
-0.092461
-0.0287144
0.0416986
0.123266
0.220721
0.338929
0.482157
0.651999
0.841344
1.01527
1.09751
-1.47642
-1.20663
-0.9205
-0.691385
-0.517302
-0.387541
-0.290058
-0.213334
-0.148121
-0.0872124
-0.0245746
0.0454605
0.12894
0.233074
0.367106
0.542681
0.771296
1.05932
1.40329
1.73014
-2.53965
-1.63054
-1.04443
-0.710955
-0.495747
-0.35209
-0.254527
-0.18358
-0.126166
-0.073592
-0.019266
0.0427899
0.119215
0.218786
0.354815
0.547987
0.826396
1.23658
1.91168
2.9242
-4.36666
-2.04463
-0.973539
-0.563177
-0.357843
-0.240143
-0.170116
-0.12378
-0.0874781
-0.0535072
-0.0166515
0.0276636
0.0846104
0.161732
0.272414
0.442102
0.718222
1.22571
2.41104
4.84853
)
;

boundaryField
{
    movingWall
    {
        type            zeroGradient;
    }
    fixedWalls
    {
        type            zeroGradient;
    }
    frontAndBack
    {
        type            empty;
    }
}


// ************************************************************************* //
