/*--------------------------------*- C++ -*----------------------------------*\
  =========                 |
  \\      /  F ield         | OpenFOAM: The Open Source CFD Toolbox
   \\    /   O peration     | Website:  https://openfoam.org
    \\  /    A nd           | Version:  10
     \\/     M anipulation  |
\*---------------------------------------------------------------------------*/
FoamFile
{
    format      ascii;
    class       volScalarField;
    location    "0.9";
    object      psi;
}
// * * * * * * * * * * * * * * * * * * * * * * * * * * * * * * * * * * * * * //

dimensions      [0 0 0 0 0 0 0];

internalField   nonuniform List<scalar> 
400
(
0.0149886
0.019242
0.0265938
0.0346016
0.0410795
0.0450455
0.0467155
0.0468987
0.0464427
0.0459711
0.0458318
0.0457989
0.0450664
0.0429742
0.0390657
0.0331986
0.025722
0.0176751
0.0107826
0.00691669
0.0212564
0.0266953
0.0353625
0.043918
0.0501798
0.0539806
0.0563714
0.0585559
0.0613599
0.0651931
0.0702228
0.0754214
0.0785994
0.0784094
0.0740023
0.0650385
0.0519426
0.036442
0.0220718
0.013385
0.0327925
0.0392889
0.0490059
0.0579739
0.0649848
0.0713105
0.0787382
0.0883324
0.100256
0.11408
0.12914
0.142775
0.151202
0.152817
0.146747
0.132453
0.109936
0.0808802
0.0508884
0.0306286
0.0477557
0.0545188
0.0648259
0.075251
0.0863115
0.100425
0.119118
0.142152
0.16794
0.194251
0.218739
0.237628
0.247802
0.24893
0.240887
0.222916
0.19362
0.152286
0.103385
0.064693
0.0645522
0.0708448
0.0821847
0.0967197
0.116419
0.14347
0.177467
0.215468
0.253285
0.286701
0.312296
0.327842
0.333925
0.332284
0.323647
0.307063
0.279587
0.236709
0.176914
0.119138
0.0820468
0.087669
0.101461
0.123315
0.155203
0.196989
0.244655
0.291915
0.332564
0.362169
0.378819
0.384374
0.38345
0.378841
0.371487
0.360475
0.342538
0.311017
0.257163
0.190512
0.0995498
0.104883
0.122953
0.154505
0.199331
0.253022
0.307347
0.353709
0.38625
0.403225
0.406612
0.40209
0.395631
0.389465
0.38415
0.379132
0.372301
0.358148
0.325067
0.267619
0.116689
0.122495
0.146427
0.18839
0.243888
0.303408
0.355586
0.392043
0.410104
0.41254
0.405217
0.394987
0.38627
0.379937
0.376056
0.374578
0.375106
0.37541
0.367177
0.335249
0.133282
0.140452
0.171168
0.222533
0.2845
0.343145
0.386352
0.408695
0.412273
0.403977
0.391455
0.380117
0.371636
0.365691
0.362074
0.361162
0.363897
0.371215
0.381188
0.380232
0.14925
0.158615
0.196246
0.254775
0.318553
0.371148
0.402299
0.411184
0.404397
0.390986
0.377998
0.368252
0.360999
0.355277
0.350874
0.348462
0.349648
0.357137
0.374284
0.396931
0.164573
0.176793
0.220766
0.283669
0.345332
0.38917
0.408618
0.407571
0.395539
0.381601
0.3708
0.363513
0.357406
0.35137
0.345413
0.340455
0.338319
0.342118
0.357399
0.389352
0.179269
0.194799
0.244027
0.308554
0.365537
0.400273
0.410535
0.403853
0.390791
0.379062
0.371403
0.366411
0.360834
0.353764
0.345634
0.337645
0.33171
0.330688
0.339739
0.368234
0.193395
0.21248
0.265547
0.329396
0.380615
0.407658
0.412148
0.403658
0.392365
0.38412
0.379659
0.376365
0.370439
0.361479
0.350553
0.339174
0.329421
0.323871
0.326228
0.344976
0.207044
0.2297
0.284989
0.346477
0.392146
0.413955
0.416162
0.408825
0.40097
0.396731
0.395217
0.392745
0.38537
0.373562
0.359213
0.344034
0.330393
0.320907
0.317908
0.326745
0.220298
0.246201
0.30191
0.359941
0.401167
0.420612
0.423624
0.419497
0.415944
0.416055
0.41741
0.414348
0.404347
0.388888
0.370769
0.351461
0.33369
0.320611
0.313739
0.315488
0.233032
0.261263
0.315278
0.369034
0.407186
0.426811
0.432776
0.432644
0.432827
0.436495
0.440894
0.436134
0.423658
0.405007
0.3839
0.360775
0.338695
0.322048
0.312218
0.309889
0.244471
0.27307
0.322662
0.371097
0.40754
0.428219
0.436407
0.439825
0.442235
0.444964
0.446354
0.441806
0.431364
0.415506
0.395148
0.370561
0.344881
0.324677
0.312174
0.307734
0.252734
0.278314
0.32073
0.365076
0.393294
0.410345
0.419548
0.42452
0.427134
0.428061
0.426989
0.423003
0.415836
0.40512
0.390542
0.37213
0.350839
0.328148
0.312926
0.307262
0.255435
0.277117
0.307567
0.33322
0.350207
0.361106
0.367837
0.371782
0.373743
0.374119
0.373144
0.371519
0.36909
0.365573
0.360494
0.35311
0.342478
0.328286
0.314136
0.307472
0.256055
0.265679
0.275342
0.283216
0.289171
0.29366
0.297101
0.299782
0.301879
0.303488
0.304733
0.3059
0.306978
0.307947
0.308776
0.309414
0.309777
0.309735
0.309159
0.307982
)
;

boundaryField
{
    movingWall
    {
        type            zeroGradient;
    }
    fixedWalls
    {
        type            zeroGradient;
    }
    frontAndBack
    {
        type            empty;
    }
}


// ************************************************************************* //
