/*--------------------------------*- C++ -*----------------------------------*\
  =========                 |
  \\      /  F ield         | OpenFOAM: The Open Source CFD Toolbox
   \\    /   O peration     | Website:  https://openfoam.org
    \\  /    A nd           | Version:  10
     \\/     M anipulation  |
\*---------------------------------------------------------------------------*/
FoamFile
{
    format      ascii;
    class       volScalarField;
    location    "1.3";
    object      p;
}
// * * * * * * * * * * * * * * * * * * * * * * * * * * * * * * * * * * * * * //

dimensions      [0 2 -2 0 0 0 0];

internalField   nonuniform List<scalar> 
400
(
3.11112e-06
-0.00582469
-0.0129627
-0.0184152
-0.0204329
-0.0182394
-0.0117748
-0.0014846
0.0118366
0.0271485
0.0432439
0.0588226
0.0725783
0.0833082
0.0900526
0.0922668
0.0900256
0.0842436
0.0768804
0.0710668
0.00578137
-0.00021795
-0.00580397
-0.00954279
-0.0105994
-0.00843334
-0.0029707
0.00547332
0.0163021
0.028711
0.0417492
0.0543855
0.0655861
0.0744096
0.08012
0.0823154
0.0810769
0.0770545
0.0712737
0.0653175
0.0133355
0.00503384
-0.000995365
-0.00442334
-0.0052733
-0.00326446
0.00160167
0.00902679
0.0185012
0.0293485
0.0407648
0.0518691
0.0617681
0.069636
0.0748067
0.0768777
0.0758412
0.0720854
0.065805
0.0575349
0.0201398
0.00869608
0.00122577
-0.00266877
-0.00372248
-0.00188579
0.00273067
0.00978383
0.0187796
0.0290942
0.0399912
0.0506534
0.0602324
0.0679156
0.0730028
0.0750011
0.0737653
0.0694555
0.0616023
0.0501018
0.0245024
0.00977325
0.000589698
-0.00398715
-0.00530259
-0.00350778
0.00117419
0.0083339
0.0174612
0.0279482
0.0390842
0.0500692
0.0600483
0.0681645
0.0736259
0.0757972
0.0743684
0.0692891
0.0595248
0.0445363
0.0251782
0.00715018
-0.00380206
-0.00905741
-0.0105125
-0.0085004
-0.0033573
0.00442886
0.0143127
0.0256783
0.037813
0.0499025
0.0610474
0.0703025
0.076734
0.0795163
0.0781383
0.0723329
0.0605385
0.0418891
0.0210937
-0.000262255
-0.0129345
-0.0187095
-0.0200301
-0.0174143
-0.0113188
-0.00232019
0.00898987
0.0219755
0.0359089
0.0499436
0.0631114
0.0743445
0.0825212
0.0865689
0.0857201
0.0794464
0.0656196
0.0430708
0.0111429
-0.0136182
-0.0278751
-0.0338544
-0.0346038
-0.0308578
-0.0232133
-0.0123457
0.00110435
0.0164833
0.0330519
0.0499329
0.0660826
0.0802892
0.0912
0.0974294
0.0978697
0.0916354
0.0758956
0.0491157
-0.0059673
-0.0342666
-0.0498702
-0.0555487
-0.0550903
-0.0495149
-0.0395939
-0.0261138
-0.00975758
0.00882251
0.0289005
0.0495929
0.0697969
0.0881539
0.103047
0.112701
0.11555
0.110191
0.0928337
0.0614108
-0.0318574
-0.0638764
-0.0804171
-0.0850073
-0.0824203
-0.0740786
-0.0609812
-0.044037
-0.023952
-0.00133737
0.0231451
0.0486605
0.0740951
0.0979717
0.118395
0.133125
0.139988
0.136817
0.11844
0.0819333
-0.0686677
-0.104604
-0.121345
-0.12359
-0.117516
-0.105127
-0.0877185
-0.0663258
-0.0416374
-0.014156
0.0156051
0.0469528
0.0788554
0.109793
0.137623
0.159585
0.172726
0.173778
0.15552
0.11357
-0.119403
-0.159357
-0.174915
-0.172757
-0.161148
-0.142929
-0.119759
-0.0927772
-0.0625777
-0.029448
0.0063728
0.0444732
0.0840548
0.123703
0.161136
0.193086
0.215668
0.224077
0.20805
0.160632
-0.188628
-0.232242
-0.243939
-0.233948
-0.213694
-0.187154
-0.156372
-0.122501
-0.0858979
-0.0464722
-0.00401455
0.0415387
0.0898421
0.139829
0.189319
0.234689
0.271075
0.291664
0.281743
0.229776
-0.283974
-0.329304
-0.331831
-0.30828
-0.274708
-0.236439
-0.195764
-0.15361
-0.10984
-0.0637448
-0.0144376
0.0388637
0.0965545
0.158277
0.222374
0.285288
0.341397
0.381575
0.384914
0.331834
-0.419318
-0.45967
-0.44235
-0.395791
-0.342128
-0.287739
-0.234615
-0.182929
-0.131608
-0.0789841
-0.0232132
0.0374761
0.104554
0.178839
0.259862
0.344971
0.428617
0.499701
0.529676
0.485392
-0.620531
-0.636743
-0.578676
-0.494192
-0.411239
-0.335657
-0.267779
-0.205976
-0.147535
-0.0893816
-0.0284247
0.0383497
0.113808
0.200473
0.299976
0.412026
0.533031
0.651776
0.732773
0.722397
-0.935922
-0.878513
-0.74174
-0.597947
-0.474391
-0.372657
-0.288867
-0.217761
-0.153952
-0.0924621
-0.0287155
0.0416974
0.123265
0.22072
0.338928
0.482156
0.651998
0.841343
1.01527
1.0975
-1.47642
-1.20663
-0.920501
-0.691386
-0.517303
-0.387542
-0.290059
-0.213335
-0.148122
-0.0872135
-0.0245757
0.0454594
0.128939
0.233073
0.367105
0.54268
0.771295
1.05932
1.40329
1.73014
-2.53965
-1.63055
-1.04444
-0.710956
-0.495748
-0.352091
-0.254528
-0.183581
-0.126167
-0.0735931
-0.0192671
0.0427888
0.119214
0.218784
0.354814
0.547986
0.826395
1.23658
1.91168
2.92419
-4.36666
-2.04463
-0.97354
-0.563178
-0.357844
-0.240144
-0.170117
-0.123781
-0.0874791
-0.0535083
-0.0166525
0.0276625
0.0846093
0.161731
0.272413
0.442101
0.718221
1.22571
2.41104
4.84853
)
;

boundaryField
{
    movingWall
    {
        type            zeroGradient;
    }
    fixedWalls
    {
        type            zeroGradient;
    }
    frontAndBack
    {
        type            empty;
    }
}


// ************************************************************************* //
