/*--------------------------------*- C++ -*----------------------------------*\
  =========                 |
  \\      /  F ield         | OpenFOAM: The Open Source CFD Toolbox
   \\    /   O peration     | Website:  https://openfoam.org
    \\  /    A nd           | Version:  10
     \\/     M anipulation  |
\*---------------------------------------------------------------------------*/
FoamFile
{
    format      ascii;
    class       volScalarField;
    location    "1.3";
    object      psi;
}
// * * * * * * * * * * * * * * * * * * * * * * * * * * * * * * * * * * * * * //

dimensions      [0 0 0 0 0 0 0];

internalField   nonuniform List<scalar> 
400
(
0.0311997
0.0352469
0.0427525
0.0521617
0.0620509
0.0716583
0.0807717
0.089375
0.0974378
0.104864
0.111482
0.116476
0.118583
0.117091
0.111559
0.101725
0.0877145
0.0706896
0.0539107
0.0432052
0.0369492
0.0421721
0.0520794
0.0650961
0.0795164
0.094174
0.108377
0.121681
0.133801
0.144604
0.154118
0.161355
0.164715
0.163613
0.157619
0.146235
0.129082
0.106748
0.0827605
0.0656498
0.0473045
0.0544233
0.0686913
0.088253
0.110595
0.133595
0.155711
0.17591
0.193585
0.208447
0.220434
0.228705
0.232347
0.231305
0.225317
0.213641
0.195099
0.168814
0.136996
0.110837
0.06061
0.07041
0.0907969
0.118835
0.15033
0.181731
0.210584
0.235437
0.255589
0.270838
0.281276
0.287166
0.289174
0.28779
0.282943
0.273877
0.258986
0.235932
0.203808
0.1722
0.0757112
0.0888657
0.116373
0.153008
0.192135
0.228707
0.259765
0.284056
0.301503
0.312733
0.318701
0.32094
0.32098
0.319357
0.316092
0.310726
0.30206
0.287693
0.264461
0.236245
0.0918243
0.108684
0.143253
0.186899
0.230311
0.26749
0.295848
0.315237
0.326936
0.332825
0.334764
0.334592
0.333476
0.331695
0.329341
0.326372
0.322425
0.316303
0.305254
0.28809
0.108375
0.12891
0.169601
0.21775
0.261817
0.295872
0.318708
0.331913
0.338215
0.340313
0.340217
0.339139
0.337478
0.335347
0.332931
0.330495
0.328313
0.326468
0.324195
0.319267
0.124923
0.148807
0.194188
0.24424
0.286156
0.315186
0.332145
0.340328
0.343306
0.34374
0.343067
0.341712
0.339607
0.336867
0.333772
0.33073
0.328283
0.327147
0.328128
0.330773
0.141142
0.167873
0.216378
0.266173
0.304333
0.328092
0.34033
0.345457
0.347061
0.347143
0.346395
0.344783
0.34212
0.338601
0.334583
0.330537
0.327069
0.325004
0.325591
0.329988
0.156815
0.185821
0.235989
0.284
0.317858
0.337092
0.346204
0.349948
0.351334
0.351548
0.350746
0.348759
0.345425
0.341022
0.335982
0.330836
0.32623
0.322953
0.322069
0.32497
0.171826
0.202538
0.253123
0.29843
0.328153
0.343987
0.351391
0.354848
0.356557
0.357024
0.356118
0.353684
0.349588
0.344195
0.338027
0.331696
0.325931
0.321563
0.319447
0.32051
0.186151
0.218037
0.26802
0.310176
0.336314
0.349869
0.356629
0.360462
0.362784
0.363599
0.362606
0.359679
0.354712
0.348192
0.340754
0.33309
0.326059
0.32064
0.317662
0.317738
0.199844
0.232403
0.280953
0.319823
0.343048
0.355257
0.362103
0.36675
0.369965
0.371346
0.370361
0.366854
0.360866
0.353069
0.344222
0.335053
0.32657
0.319994
0.316246
0.315949
0.213004
0.245731
0.292126
0.327732
0.348659
0.360161
0.367495
0.373229
0.37768
0.380044
0.379286
0.375029
0.367873
0.358718
0.348431
0.337637
0.327493
0.319582
0.314963
0.314353
0.225704
0.258014
0.30156
0.333954
0.352997
0.364022
0.371762
0.378428
0.384236
0.388138
0.388228
0.383117
0.374914
0.364611
0.353161
0.340826
0.328871
0.31944
0.313797
0.312697
0.237804
0.268939
0.308912
0.338107
0.355462
0.365831
0.373279
0.379906
0.386096
0.390528
0.392194
0.387695
0.379732
0.369292
0.357665
0.344382
0.330696
0.319609
0.312796
0.311082
0.248625
0.277519
0.313147
0.339197
0.355335
0.365046
0.371254
0.376263
0.380326
0.382903
0.383481
0.381376
0.3767
0.36954
0.359959
0.347411
0.332755
0.320106
0.311985
0.30966
0.256585
0.281653
0.312476
0.336574
0.349171
0.356734
0.36152
0.364792
0.366945
0.367997
0.367874
0.366558
0.363918
0.359702
0.353552
0.345058
0.334058
0.320797
0.311341
0.308489
0.259247
0.281011
0.303705
0.318803
0.327601
0.332996
0.33639
0.338518
0.339743
0.34023
0.340082
0.339643
0.338841
0.33753
0.335436
0.332083
0.326768
0.318988
0.310736
0.307524
0.259761
0.269666
0.277785
0.283639
0.287816
0.290904
0.293286
0.29519
0.296743
0.298016
0.299088
0.300135
0.301156
0.302145
0.303093
0.303981
0.304773
0.305422
0.305937
0.306599
)
;

boundaryField
{
    movingWall
    {
        type            zeroGradient;
    }
    fixedWalls
    {
        type            zeroGradient;
    }
    frontAndBack
    {
        type            empty;
    }
}


// ************************************************************************* //
