/*--------------------------------*- C++ -*----------------------------------*\
  =========                 |
  \\      /  F ield         | OpenFOAM: The Open Source CFD Toolbox
   \\    /   O peration     | Website:  https://openfoam.org
    \\  /    A nd           | Version:  10
     \\/     M anipulation  |
\*---------------------------------------------------------------------------*/
FoamFile
{
    format      ascii;
    class       volScalarField;
    location    "0.7";
    object      p;
}
// * * * * * * * * * * * * * * * * * * * * * * * * * * * * * * * * * * * * * //

dimensions      [0 2 -2 0 0 0 0];

internalField   nonuniform List<scalar> 
400
(
4.04086e-06
-0.00582312
-0.012961
-0.0184134
-0.0204311
-0.0182375
-0.011773
-0.00148278
0.0118383
0.0271502
0.0432456
0.0588244
0.0725801
0.08331
0.0900544
0.0922685
0.0900273
0.0842453
0.076882
0.0710685
0.00578295
-0.000216261
-0.00580226
-0.00954109
-0.0105977
-0.00843154
-0.00296884
0.00547518
0.0163039
0.0287127
0.0417509
0.0543872
0.0655878
0.0744114
0.0801218
0.0823173
0.0810787
0.0770562
0.0712754
0.0653191
0.0133372
0.00503558
-0.000993625
-0.00442163
-0.00527162
-0.00326275
0.00160345
0.00902865
0.0185031
0.0293503
0.0407665
0.0518708
0.0617698
0.0696377
0.0748084
0.0768795
0.075843
0.0720872
0.0658067
0.0575367
0.0201415
0.00869784
0.00122756
-0.00266701
-0.00372079
-0.00188413
0.00273236
0.00978562
0.0187814
0.0290961
0.0399931
0.0506551
0.0602341
0.0679172
0.0730045
0.0750028
0.0737671
0.0694574
0.0616041
0.0501036
0.024504
0.00977498
0.000591508
-0.00398533
-0.00530082
-0.0035061
0.00117583
0.00833559
0.017463
0.0279501
0.0390861
0.050071
0.06005
0.0681662
0.0736275
0.0757989
0.0743702
0.069291
0.0595267
0.0445381
0.0251798
0.00715187
-0.00380029
-0.00905556
-0.0105106
-0.00849863
-0.00335563
0.00443049
0.0143144
0.02568
0.0378149
0.0499044
0.0610492
0.0703042
0.0767357
0.079518
0.07814
0.0723347
0.0605404
0.041891
0.0210954
-0.0002606
-0.0129328
-0.0187077
-0.0200282
-0.0174124
-0.011317
-0.00231852
0.0089915
0.0219772
0.0359107
0.0499455
0.0631133
0.0743464
0.082523
0.0865706
0.0857218
0.0794482
0.0656214
0.0430727
0.0111446
-0.0136165
-0.0278734
-0.0338526
-0.0346019
-0.0308559
-0.0232114
-0.0123439
0.00110603
0.016485
0.0330536
0.0499347
0.0660845
0.0802911
0.0912019
0.0974312
0.0978714
0.0916371
0.0758974
0.0491176
-0.00596545
-0.0342649
-0.0498685
-0.0555471
-0.0550886
-0.049513
-0.0395919
-0.0261118
-0.00975577
0.00882421
0.0289021
0.0495946
0.0697987
0.0881558
0.103049
0.112702
0.115552
0.110193
0.0928354
0.0614126
-0.0318555
-0.0638745
-0.0804154
-0.0850057
-0.0824186
-0.0740768
-0.0609793
-0.0440351
-0.02395
-0.00133553
0.0231469
0.0486622
0.0740968
0.0979735
0.118397
0.133127
0.13999
0.136819
0.118442
0.081935
-0.0686658
-0.104602
-0.121343
-0.123589
-0.117514
-0.105125
-0.0877167
-0.0663239
-0.0416354
-0.0141541
0.015607
0.0469546
0.0788571
0.109795
0.137625
0.159587
0.172728
0.17378
0.155522
0.113572
-0.119401
-0.159355
-0.174913
-0.172755
-0.161146
-0.142927
-0.119757
-0.0927754
-0.0625758
-0.029446
0.00637475
0.0444751
0.0840566
0.123705
0.161138
0.193088
0.21567
0.224079
0.208052
0.160634
-0.188627
-0.23224
-0.243937
-0.233946
-0.213692
-0.187153
-0.156371
-0.122499
-0.0858961
-0.0464703
-0.00401262
0.0415407
0.0898439
0.139831
0.189321
0.234691
0.271076
0.291666
0.281745
0.229778
-0.283973
-0.329303
-0.331829
-0.308278
-0.274706
-0.236438
-0.195762
-0.153608
-0.109838
-0.0637431
-0.0144357
0.0388656
0.0965565
0.158279
0.222376
0.28529
0.341399
0.381577
0.384916
0.331836
-0.419316
-0.459669
-0.442348
-0.395789
-0.342126
-0.287737
-0.234613
-0.182927
-0.131607
-0.0789824
-0.0232114
0.0374779
0.104556
0.17884
0.259864
0.344973
0.428619
0.499703
0.529678
0.485394
-0.620529
-0.636741
-0.578674
-0.49419
-0.411237
-0.335655
-0.267777
-0.205974
-0.147533
-0.0893798
-0.0284229
0.0383514
0.11381
0.200475
0.299978
0.412028
0.533033
0.651778
0.732775
0.722399
-0.93592
-0.878511
-0.741738
-0.597945
-0.474389
-0.372655
-0.288865
-0.217759
-0.15395
-0.0924603
-0.0287137
0.0416992
0.123267
0.220722
0.338929
0.482158
0.652
0.841345
1.01527
1.09751
-1.47642
-1.20663
-0.920499
-0.691384
-0.517301
-0.38754
-0.290057
-0.213333
-0.14812
-0.0872117
-0.0245738
0.0454612
0.128941
0.233075
0.367107
0.542682
0.771297
1.05932
1.40329
1.73014
-2.53964
-1.63054
-1.04443
-0.710955
-0.495746
-0.352089
-0.254527
-0.183579
-0.126165
-0.0735913
-0.0192653
0.0427906
0.119216
0.218786
0.354816
0.547987
0.826397
1.23658
1.91168
2.9242
-4.36666
-2.04463
-0.973538
-0.563177
-0.357842
-0.240143
-0.170115
-0.123779
-0.0874775
-0.0535065
-0.0166508
0.0276643
0.0846111
0.161733
0.272415
0.442103
0.718222
1.22571
2.41104
4.84853
)
;

boundaryField
{
    movingWall
    {
        type            zeroGradient;
    }
    fixedWalls
    {
        type            zeroGradient;
    }
    frontAndBack
    {
        type            empty;
    }
}


// ************************************************************************* //
