/*--------------------------------*- C++ -*----------------------------------*\
  =========                 |
  \\      /  F ield         | OpenFOAM: The Open Source CFD Toolbox
   \\    /   O peration     | Website:  https://openfoam.org
    \\  /    A nd           | Version:  10
     \\/     M anipulation  |
\*---------------------------------------------------------------------------*/
FoamFile
{
    format      ascii;
    class       volScalarField;
    location    "0.7";
    object      psi;
}
// * * * * * * * * * * * * * * * * * * * * * * * * * * * * * * * * * * * * * //

dimensions      [0 0 0 0 0 0 0];

internalField   nonuniform List<scalar> 
400
(
0.00699534
0.0105549
0.0171814
0.0252567
0.0327549
0.038153
0.0409178
0.0413195
0.0399844
0.0375527
0.0345289
0.0311496
0.0274387
0.0234279
0.0191395
0.0146555
0.0102206
0.00629201
0.00342139
0.00198679
0.0121079
0.0179462
0.0278574
0.0385363
0.0468734
0.0514281
0.0524498
0.0510439
0.0484187
0.0455469
0.0431362
0.0412749
0.0392944
0.036528
0.032391
0.0266277
0.0195732
0.0123226
0.00652449
0.00349008
0.0226648
0.032014
0.0462843
0.0592667
0.0671161
0.0695314
0.0683635
0.065908
0.0640054
0.0638647
0.0662168
0.0703073
0.0735419
0.0738463
0.0697071
0.0604446
0.0465799
0.0303639
0.0159889
0.00791353
0.0383206
0.0510988
0.0686293
0.0817812
0.0873811
0.0875667
0.0863153
0.0870328
0.0917535
0.101212
0.115173
0.130548
0.141918
0.146136
0.141314
0.126527
0.102019
0.0703886
0.0387472
0.0186762
0.0580328
0.0729106
0.0914271
0.102728
0.106083
0.106953
0.111262
0.12262
0.141869
0.167579
0.196776
0.223381
0.240854
0.246904
0.240513
0.220737
0.186518
0.138218
0.0827265
0.0412776
0.0802919
0.0953531
0.112711
0.121741
0.125552
0.132796
0.149968
0.17885
0.216931
0.258901
0.298371
0.328451
0.345368
0.349551
0.341566
0.320558
0.283634
0.226678
0.1505
0.0813081
0.103589
0.117031
0.132087
0.140359
0.149143
0.168742
0.203696
0.251482
0.304751
0.354522
0.393086
0.41659
0.426654
0.426475
0.417846
0.400076
0.369161
0.317006
0.234726
0.141232
0.12671
0.137281
0.150113
0.160397
0.178598
0.213988
0.266414
0.327601
0.386013
0.431681
0.459277
0.470337
0.471223
0.46646
0.4582
0.446033
0.426236
0.389686
0.320095
0.21789
0.148826
0.155958
0.167599
0.182856
0.213198
0.263975
0.328677
0.393876
0.446532
0.479223
0.491611
0.490077
0.483054
0.474868
0.467379
0.460489
0.451749
0.434064
0.390278
0.301883
0.169447
0.173199
0.185165
0.207628
0.250439
0.312976
0.382517
0.442819
0.482567
0.499189
0.497525
0.486524
0.474216
0.463958
0.457062
0.453637
0.452642
0.450367
0.434742
0.379247
0.18834
0.189238
0.203058
0.233741
0.287233
0.356361
0.423924
0.473738
0.498411
0.500488
0.488419
0.471531
0.456219
0.444818
0.43811
0.436229
0.439076
0.445864
0.451738
0.435795
0.205422
0.204291
0.221156
0.259771
0.320838
0.391543
0.452688
0.490344
0.501553
0.492699
0.473899
0.453686
0.436683
0.424525
0.417605
0.41591
0.419686
0.429756
0.446928
0.463128
0.220683
0.218499
0.23903
0.284154
0.34922
0.417749
0.470893
0.497909
0.499299
0.483361
0.460413
0.438075
0.419685
0.406642
0.399114
0.396824
0.39994
0.409638
0.429381
0.462484
0.234118
0.231882
0.255955
0.305235
0.370806
0.434998
0.481032
0.5011
0.49734
0.477886
0.45221
0.427629
0.407219
0.39264
0.383989
0.380621
0.382432
0.39018
0.407462
0.443063
0.245701
0.24425
0.270802
0.321028
0.383723
0.442459
0.483569
0.50144
0.497969
0.479169
0.45211
0.424112
0.400309
0.38305
0.372544
0.367599
0.367886
0.373406
0.386557
0.416244
0.255372
0.255043
0.281828
0.328857
0.384958
0.436764
0.473935
0.492682
0.492809
0.479102
0.456369
0.426437
0.3988
0.377867
0.364729
0.357535
0.356087
0.359628
0.368938
0.390471
0.263062
0.263222
0.28682
0.325998
0.372891
0.416344
0.444107
0.458124
0.459695
0.451625
0.436736
0.416605
0.395103
0.375492
0.360092
0.350077
0.346503
0.34834
0.354795
0.369632
0.268897
0.267892
0.285296
0.316536
0.347131
0.372778
0.389403
0.398026
0.399911
0.396465
0.389239
0.380342
0.370392
0.360136
0.350547
0.342883
0.338549
0.338745
0.343313
0.354144
0.27415
0.271212
0.282029
0.29717
0.310647
0.321253
0.328567
0.333009
0.335102
0.335339
0.334329
0.33324
0.332103
0.33097
0.32993
0.329156
0.328972
0.329933
0.333177
0.342699
0.279767
0.278544
0.281173
0.284805
0.288375
0.291613
0.294483
0.297028
0.2993
0.30135
0.30326
0.305188
0.307151
0.309174
0.311297
0.313581
0.316152
0.319291
0.323855
0.33286
)
;

boundaryField
{
    movingWall
    {
        type            zeroGradient;
    }
    fixedWalls
    {
        type            zeroGradient;
    }
    frontAndBack
    {
        type            empty;
    }
}


// ************************************************************************* //
