/*--------------------------------*- C++ -*----------------------------------*\
  =========                 |
  \\      /  F ield         | OpenFOAM: The Open Source CFD Toolbox
   \\    /   O peration     | Website:  https://openfoam.org
    \\  /    A nd           | Version:  10
     \\/     M anipulation  |
\*---------------------------------------------------------------------------*/
FoamFile
{
    format      ascii;
    class       volVectorField;
    location    "0.7";
    object      U;
}
// * * * * * * * * * * * * * * * * * * * * * * * * * * * * * * * * * * * * * //

dimensions      [0 1 -1 0 0 0 0];

internalField   nonuniform List<vector> 
400
(
(0.000253423 -0.00025045 0)
(0.00014123 0.000111431 0)
(-0.00117705 0.000564634 0)
(-0.00348133 0.000885034 0)
(-0.0063779 0.00104577 0)
(-0.0094701 0.00106181 0)
(-0.0124038 0.000957902 0)
(-0.014886 0.00076048 0)
(-0.0166907 0.000494671 0)
(-0.0176595 0.000184569 0)
(-0.0177034 -0.000145279 0)
(-0.0168063 -0.000468398 0)
(-0.0150311 -0.000755464 0)
(-0.012526 -0.000974329 0)
(-0.009527 -0.00109126 0)
(-0.00635537 -0.00107408 0)
(-0.00340082 -0.000898176 0)
(-0.00108647 -0.000556419 0)
(0.000196451 -9.03644e-05 0)
(0.00026788 0.000262406 0)
(-7.7467e-05 -0.000169383 0)
(-0.00161167 0.00164494 0)
(-0.00569333 0.00361756 0)
(-0.0117198 0.0050352 0)
(-0.0188938 0.00574367 0)
(-0.026403 0.00576066 0)
(-0.033472 0.00517208 0)
(-0.0394302 0.00409283 0)
(-0.0437477 0.00264783 0)
(-0.046051 0.000966984 0)
(-0.0461334 -0.00081331 0)
(-0.043965 -0.0025473 0)
(-0.0397045 -0.00407899 0)
(-0.0337054 -0.00524554 0)
(-0.0265155 -0.00588704 0)
(-0.018856 -0.00586532 0)
(-0.0115675 -0.00509514 0)
(-0.00551367 -0.00358967 0)
(-0.00149318 -0.00155923 0)
(-4.2577e-05 0.00022749 0)
(-0.000528651 0.00109171 0)
(-0.0037117 0.00573674 0)
(-0.0105898 0.0102253 0)
(-0.0199934 0.0134088 0)
(-0.0307675 0.0149475 0)
(-0.0418259 0.0148401 0)
(-0.0521245 0.0132568 0)
(-0.0607496 0.0104571 0)
(-0.0669754 0.00674252 0)
(-0.070289 0.00243901 0)
(-0.0704069 -0.0021068 0)
(-0.0672902 -0.00652609 0)
(-0.0611576 -0.0104301 0)
(-0.0524929 -0.0134222 0)
(-0.0420405 -0.0151248 0)
(-0.0307764 -0.0152269 0)
(-0.0198306 -0.013557 0)
(-0.0103643 -0.0101797 0)
(-0.00354877 -0.00555145 0)
(-0.000476877 -0.000948877 0)
(-0.000928306 0.00348013 0)
(-0.00569198 0.0122216 0)
(-0.0153031 0.0199233 0)
(-0.0279192 0.0251999 0)
(-0.041989 0.0275993 0)
(-0.0561839 0.0271397 0)
(-0.0692581 0.0241109 0)
(-0.0801326 0.0189554 0)
(-0.0879558 0.0121965 0)
(-0.0921267 0.00440531 0)
(-0.0923113 -0.00380845 0)
(-0.0884576 -0.0117977 0)
(-0.0808116 -0.0188838 0)
(-0.0699286 -0.0243784 0)
(-0.0566737 -0.0276299 0)
(-0.0421981 -0.028104 0)
(-0.0278587 -0.0254996 0)
(-0.0150948 -0.0198931 0)
(-0.00550543 -0.0119285 0)
(-0.000861661 -0.00322507 0)
(-0.00127904 0.00687835 0)
(-0.00753664 0.0209553 0)
(-0.0198063 0.0325129 0)
(-0.0355377 0.0401063 0)
(-0.0527476 0.0432937 0)
(-0.0698641 0.0421961 0)
(-0.0854702 0.0372804 0)
(-0.0983684 0.0292153 0)
(-0.107628 0.0187785 0)
(-0.112597 0.00681404 0)
(-0.112906 -0.0057811 0)
(-0.108483 -0.0180564 0)
(-0.0995696 -0.0290139 0)
(-0.0867455 -0.0376358 0)
(-0.0709408 -0.0429483 0)
(-0.053434 -0.0441321 0)
(-0.035787 -0.0406815 0)
(-0.0197365 -0.0325946 0)
(-0.00737107 -0.0205919 0)
(-0.00120375 -0.00649856 0)
(-0.00160764 0.0112164 0)
(-0.00931864 0.0318768 0)
(-0.0242108 0.0479552 0)
(-0.0430054 0.058076 0)
(-0.063261 0.0619414 0)
(-0.0831582 0.0598852 0)
(-0.101131 0.0526318 0)
(-0.115899 0.0411285 0)
(-0.126496 0.0264386 0)
(-0.132246 0.00969324 0)
(-0.132758 -0.00791723 0)
(-0.127931 -0.0251342 0)
(-0.117973 -0.040628 0)
(-0.10344 -0.053023 0)
(-0.0852736 -0.0609702 0)
(-0.064839 -0.063284 0)
(-0.0438877 -0.0591455 0)
(-0.0244789 -0.0483471 0)
(-0.00925478 -0.0315593 0)
(-0.00153783 -0.0107291 0)
(-0.00194014 0.0164781 0)
(-0.0111217 0.0449769 0)
(-0.0286516 0.0662372 0)
(-0.050482 0.0790639 0)
(-0.0736881 0.0834511 0)
(-0.0962078 0.0800787 0)
(-0.116357 0.0700283 0)
(-0.13282 0.0545878 0)
(-0.144637 0.0351334 0)
(-0.151148 0.013085 0)
(-0.151955 -0.0100875 0)
(-0.146921 -0.0328349 0)
(-0.136186 -0.0535031 0)
(-0.120228 -0.070341 0)
(-0.0999362 -0.0815698 0)
(-0.0767041 -0.0855371 0)
(-0.0524419 -0.0809677 0)
(-0.0295458 -0.0672802 0)
(-0.011284 -0.0449416 0)
(-0.00190014 -0.0159523 0)
(-0.00230009 0.0226961 0)
(-0.0130254 0.0603037 0)
(-0.0332516 0.0873676 0)
(-0.0580811 0.103001 0)
(-0.0840766 0.10767 0)
(-0.108956 0.102566 0)
(-0.130971 0.0892482 0)
(-0.148838 0.0694139 0)
(-0.16167 0.0447734 0)
(-0.168872 0.0170202 0)
(-0.170067 -0.0121347 0)
(-0.165075 -0.0408957 0)
(-0.153933 -0.0673179 0)
(-0.136973 -0.0892776 0)
(-0.114945 -0.104517 0)
(-0.0891776 -0.110801 0)
(-0.0616718 -0.106217 0)
(-0.035149 -0.0895828 0)
(-0.0135861 -0.0609517 0)
(-0.00232638 -0.0222784 0)
(-0.00271166 0.0299481 0)
(-0.0151081 0.0779593 0)
(-0.038115 0.11136 0)
(-0.0658489 0.129754 0)
(-0.0943276 0.134322 0)
(-0.1211 0.126978 0)
(-0.144445 0.109906 0)
(-0.163215 0.0852847 0)
(-0.176689 0.0551688 0)
(-0.184408 0.0214873 0)
(-0.186059 -0.0138758 0)
(-0.181423 -0.0489591 0)
(-0.170396 -0.081597 0)
(-0.153082 -0.109328 0)
(-0.129972 -0.129386 0)
(-0.102187 -0.138833 0)
(-0.07169 -0.134891 0)
(-0.0414673 -0.115473 0)
(-0.0162882 -0.0798976 0)
(-0.00285472 -0.0298904 0)
(-0.00320765 0.0383606 0)
(-0.0174662 0.0980919 0)
(-0.043341 0.138193 0)
(-0.0737566 0.15905 0)
(-0.10416 0.162905 0)
(-0.132032 0.152677 0)
(-0.155826 0.131345 0)
(-0.174679 0.101643 0)
(-0.188168 0.0659593 0)
(-0.196068 0.0263899 0)
(-0.198186 -0.0151137 0)
(-0.194284 -0.0565477 0)
(-0.184082 -0.0956454 0)
(-0.167367 -0.129693 0)
(-0.144216 -0.155428 0)
(-0.115339 -0.169102 0)
(-0.082446 -0.166807 0)
(-0.0486362 -0.145127 0)
(-0.0195288 -0.102162 0)
(-0.00353357 -0.0390481 0)
(-0.00384393 0.0481295 0)
(-0.0202461 0.120896 0)
(-0.0490463 0.167755 0)
(-0.081686 0.19037 0)
(-0.113053 0.192562 0)
(-0.140746 0.178619 0)
(-0.163621 0.152516 0)
(-0.181308 0.117596 0)
(-0.193846 0.0765367 0)
(-0.20136 0.0314948 0)
(-0.203856 -0.0156598 0)
(-0.201109 -0.0630526 0)
(-0.192648 -0.108494 0)
(-0.177857 -0.149175 0)
(-0.156223 -0.18142 0)
(-0.127779 -0.200611 0)
(-0.0936441 -0.201429 0)
(-0.056733 -0.178577 0)
(-0.0234798 -0.128175 0)
(-0.00443553 -0.0501052 0)
(-0.00472533 0.0595719 0)
(-0.0236945 0.146619 0)
(-0.0553825 0.199759 0)
(-0.0893756 0.222794 0)
(-0.120121 0.221896 0)
(-0.145674 0.203192 0)
(-0.165629 0.171844 0)
(-0.180369 0.131813 0)
(-0.190579 0.0859717 0)
(-0.196862 0.036377 0)
(-0.1995 -0.0153713 0)
(-0.198334 -0.067745 0)
(-0.192716 -0.11887 0)
(-0.181573 -0.166082 0)
(-0.163644 -0.205492 0)
(-0.137966 -0.231665 0)
(-0.104595 -0.237629 0)
(-0.0657333 -0.215528 0)
(-0.0283776 -0.15837 0)
(-0.00568207 -0.0635529 0)
(-0.00605153 0.0732289 0)
(-0.0282255 0.175565 0)
(-0.062508 0.233573 0)
(-0.0962558 0.25475 0)
(-0.123855 0.248735 0)
(-0.144396 0.22403 0)
(-0.158668 0.18711 0)
(-0.168104 0.142465 0)
(-0.174198 0.0929706 0)
(-0.178116 0.0403797 0)
(-0.180482 -0.0141991 0)
(-0.181263 -0.0698229 0)
(-0.179693 -0.125213 0)
(-0.174268 -0.178183 0)
(-0.162893 -0.224977 0)
(-0.143315 -0.259591 0)
(-0.113937 -0.273332 0)
(-0.0753927 -0.255069 0)
(-0.0345561 -0.193092 0)
(-0.00748626 -0.0801049 0)
(-0.008192 0.0900467 0)
(-0.0344824 0.208022 0)
(-0.0704113 0.267886 0)
(-0.101022 0.283609 0)
(-0.121572 0.269814 0)
(-0.133105 0.237844 0)
(-0.138159 0.195407 0)
(-0.139458 0.147235 0)
(-0.139363 0.0959107 0)
(-0.139591 0.0426201 0)
(-0.141105 -0.0122334 0)
(-0.144051 -0.0685085 0)
(-0.147665 -0.125796 0)
(-0.150166 -0.182772 0)
(-0.148718 -0.236327 0)
(-0.139642 -0.28045 0)
(-0.119094 -0.305028 0)
(-0.0849354 -0.295161 0)
(-0.0424402 -0.232378 0)
(-0.010216 -0.100837 0)
(-0.0117674 0.111636 0)
(-0.0432593 0.243962 0)
(-0.0782962 0.300036 0)
(-0.100626 0.305095 0)
(-0.108348 0.280463 0)
(-0.105727 0.240385 0)
(-0.0975246 0.193283 0)
(-0.0877654 0.143551 0)
(-0.079495 0.0930371 0)
(-0.0747792 0.0420954 0)
(-0.0747969 -0.00972917 0)
(-0.079885 -0.0632123 0)
(-0.0894577 -0.118992 0)
(-0.101784 -0.176959 0)
(-0.113683 -0.235287 0)
(-0.120302 -0.288884 0)
(-0.115262 -0.327198 0)
(-0.0922656 -0.331796 0)
(-0.0523153 -0.275405 0)
(-0.0144303 -0.127347 0)
(-0.0175492 0.140659 0)
(-0.0547641 0.282146 0)
(-0.0827852 0.324719 0)
(-0.0880785 0.312475 0)
(-0.0751055 0.274458 0)
(-0.052587 0.226772 0)
(-0.0274536 0.17729 0)
(-0.00450887 0.129137 0)
(0.013105 0.0829137 0)
(0.0234465 0.0379472 0)
(0.025405 -0.00707379 0)
(0.0185136 -0.0537594 0)
(0.00298545 -0.103753 0)
(-0.019992 -0.158322 0)
(-0.0476819 -0.217504 0)
(-0.0749818 -0.278363 0)
(-0.0935447 -0.331793 0)
(-0.0920627 -0.357684 0)
(-0.0632801 -0.319295 0)
(-0.0206335 -0.161974 0)
(-0.0254497 0.181711 0)
(-0.0657742 0.317772 0)
(-0.0733321 0.331363 0)
(-0.0480753 0.295402 0)
(-0.00557565 0.244213 0)
(0.0412221 0.192382 0)
(0.0846575 0.145048 0)
(0.120542 0.102973 0)
(0.146708 0.0651385 0)
(0.162053 0.0298916 0)
(0.165947 -0.0046718 0)
(0.157941 -0.0406291 0)
(0.137737 -0.0802475 0)
(0.105445 -0.125919 0)
(0.0622657 -0.179728 0)
(0.0118084 -0.242022 0)
(-0.0378282 -0.307879 0)
(-0.0716784 -0.360144 0)
(-0.0700552 -0.356609 0)
(-0.0279122 -0.208375 0)
(-0.029649 0.239176 0)
(-0.0608411 0.335768 0)
(-0.0219418 0.300503 0)
(0.050543 0.240128 0)
(0.127574 0.18295 0)
(0.19701 0.13539 0)
(0.25434 0.0973998 0)
(0.298254 0.0668517 0)
(0.328829 0.0413557 0)
(0.346472 0.0187787 0)
(0.351381 -0.00279431 0)
(0.343307 -0.0252655 0)
(0.321473 -0.0507883 0)
(0.284646 -0.0820488 0)
(0.231575 -0.122447 0)
(0.162183 -0.17567 0)
(0.0799019 -0.243432 0)
(-0.00318919 -0.319137 0)
(-0.0546693 -0.368613 0)
(-0.0284593 -0.267618 0)
(0.00808308 0.281861 0)
(0.0197831 0.294972 0)
(0.139066 0.210973 0)
(0.26446 0.143477 0)
(0.364368 0.0971863 0)
(0.440365 0.0657778 0)
(0.496745 0.0442378 0)
(0.536876 0.0288862 0)
(0.563449 0.017199 0)
(0.578308 0.00748482 0)
(0.582383 -0.00149419 0)
(0.575698 -0.0108454 0)
(0.557311 -0.0218473 0)
(0.525137 -0.0363352 0)
(0.475778 -0.0572598 0)
(0.404538 -0.0893843 0)
(0.305177 -0.139741 0)
(0.173417 -0.216386 0)
(0.0411721 -0.311655 0)
(0.0184302 -0.299995 0)
(0.299604 0.146091 0)
(0.396272 0.127503 0)
(0.55742 0.0760895 0)
(0.674487 0.0437233 0)
(0.743889 0.0255721 0)
(0.787154 0.0152422 0)
(0.815486 0.00921239 0)
(0.833956 0.00550945 0)
(0.845386 0.0030272 0)
(0.851372 0.00114935 0)
(0.852667 -0.000499401 0)
(0.849383 -0.0022151 0)
(0.841 -0.0043386 0)
(0.826141 -0.00742412 0)
(0.802079 -0.0125323 0)
(0.763621 -0.0217729 0)
(0.699108 -0.039283 0)
(0.583952 -0.0726601 0)
(0.415827 -0.127868 0)
(0.308819 -0.149468 0)
)
;

boundaryField
{
    movingWall
    {
        type            fixedValue;
        value           uniform (1 0 0);
    }
    fixedWalls
    {
        type            noSlip;
    }
    frontAndBack
    {
        type            empty;
    }
}


// ************************************************************************* //
