/*--------------------------------*- C++ -*----------------------------------*\
  =========                 |
  \\      /  F ield         | OpenFOAM: The Open Source CFD Toolbox
   \\    /   O peration     | Website:  https://openfoam.org
    \\  /    A nd           | Version:  10
     \\/     M anipulation  |
\*---------------------------------------------------------------------------*/
FoamFile
{
    format      ascii;
    class       volScalarField;
    location    "1.7";
    object      psi;
}
// * * * * * * * * * * * * * * * * * * * * * * * * * * * * * * * * * * * * * //

dimensions      [0 0 0 0 0 0 0];

internalField   nonuniform List<scalar> 
400
(
0.049577
0.056116
0.0688166
0.0856767
0.104047
0.121668
0.137228
0.150261
0.160803
0.16909
0.175354
0.179319
0.180342
0.178074
0.172212
0.16243
0.14858
0.131402
0.113889
0.102354
0.0566229
0.0655098
0.0822983
0.103917
0.126536
0.147325
0.164977
0.179297
0.19063
0.19949
0.206398
0.211073
0.212722
0.21108
0.205839
0.196506
0.182532
0.163975
0.143322
0.127966
0.0692388
0.0814864
0.104033
0.131797
0.159532
0.184087
0.204428
0.220712
0.233506
0.243396
0.250857
0.255733
0.257679
0.256711
0.252641
0.244919
0.232622
0.214864
0.192662
0.1736
0.0850886
0.100934
0.129382
0.162796
0.194638
0.221757
0.243533
0.260443
0.273196
0.282395
0.288483
0.291832
0.292939
0.292115
0.289351
0.28424
0.275875
0.262842
0.244343
0.225508
0.102359
0.121527
0.155146
0.192748
0.226733
0.254197
0.275032
0.290111
0.300439
0.306904
0.31025
0.311412
0.311307
0.310294
0.308457
0.305632
0.301294
0.294325
0.283167
0.269429
0.119851
0.141824
0.17945
0.219417
0.253395
0.279006
0.296838
0.308351
0.315058
0.318305
0.319201
0.318809
0.317862
0.316582
0.315071
0.31337
0.311396
0.308741
0.304346
0.297638
0.136855
0.161036
0.201386
0.241965
0.274177
0.29649
0.310398
0.318075
0.32155
0.322465
0.322
0.320931
0.319571
0.318008
0.316344
0.314746
0.31342
0.312534
0.311938
0.310764
0.15299
0.178801
0.220659
0.260423
0.28975
0.308245
0.318396
0.323013
0.324406
0.324181
0.32327
0.322036
0.32046
0.318564
0.316477
0.314435
0.312781
0.311966
0.312466
0.314044
0.168082
0.195007
0.237326
0.275262
0.301216
0.316091
0.323267
0.325938
0.326371
0.325866
0.324976
0.323737
0.32195
0.319641
0.316983
0.314271
0.311914
0.310458
0.310617
0.312786
0.182091
0.209686
0.251622
0.287108
0.309695
0.321554
0.326716
0.328442
0.328701
0.328371
0.327657
0.326402
0.324327
0.321498
0.318159
0.314667
0.311492
0.309213
0.308566
0.310261
0.195059
0.222955
0.26385
0.296593
0.31613
0.325731
0.329764
0.33129
0.331851
0.331908
0.331395
0.33006
0.327588
0.324117
0.319978
0.315607
0.311548
0.308433
0.306949
0.307858
0.20709
0.234972
0.274325
0.304268
0.321236
0.329326
0.332946
0.334792
0.335949
0.336516
0.336208
0.334712
0.331715
0.327464
0.322395
0.317024
0.311994
0.308032
0.30579
0.305947
0.218325
0.245911
0.283327
0.31056
0.32549
0.332713
0.33645
0.338975
0.340962
0.342181
0.342105
0.340345
0.336676
0.331504
0.325388
0.31889
0.312765
0.307905
0.304967
0.30451
0.228921
0.255919
0.291059
0.315746
0.329121
0.335947
0.340118
0.343532
0.346565
0.348677
0.348947
0.346773
0.342293
0.336116
0.328913
0.321197
0.313838
0.307987
0.304364
0.303423
0.238991
0.265051
0.297582
0.319892
0.332069
0.338712
0.343303
0.347494
0.351592
0.354907
0.355906
0.353191
0.347948
0.340893
0.332792
0.323913
0.315212
0.308253
0.303906
0.302564
0.24847
0.273125
0.302697
0.322767
0.33396
0.340365
0.344949
0.349244
0.353682
0.357395
0.359485
0.357095
0.351962
0.344754
0.336471
0.326859
0.316871
0.308707
0.303551
0.301857
0.256878
0.27946
0.305701
0.32369
0.334266
0.340464
0.34447
0.347867
0.350881
0.353126
0.354114
0.353142
0.350196
0.345294
0.338482
0.329385
0.318664
0.309354
0.303282
0.301261
0.263039
0.282534
0.305294
0.322073
0.330497
0.335507
0.338729
0.341022
0.342652
0.343604
0.343772
0.343068
0.341373
0.338478
0.334104
0.327941
0.319878
0.310109
0.303079
0.300754
0.265075
0.282039
0.298857
0.309569
0.315678
0.319396
0.321745
0.323238
0.324124
0.324509
0.324451
0.324175
0.323627
0.322695
0.321173
0.318707
0.314776
0.309011
0.302873
0.30031
0.265422
0.273153
0.279285
0.283611
0.286665
0.28891
0.290637
0.292015
0.293138
0.294058
0.294831
0.295584
0.296316
0.297021
0.297691
0.298311
0.298852
0.299272
0.299559
0.299852
)
;

boundaryField
{
    movingWall
    {
        type            zeroGradient;
    }
    fixedWalls
    {
        type            zeroGradient;
    }
    frontAndBack
    {
        type            empty;
    }
}


// ************************************************************************* //
